VARIABLES = "X" "Y" "Z" "DispMag"
ZONE T="5deg_def"    I=257    J=129    K=1    F=POINT
    0.9961946980917560    0.0000000000000000    -0.0871557427476333    0.0872387747306467
    0.9952596025038929    0.0000000000000000    -0.0872067620130465    0.0871578972432173
    0.9934109695059306    0.0000000000000000    -0.0873072208496594    0.0869980082897634
    0.9912212316624220    0.0000000000000000    -0.0874254694426640    0.0868086190960365
    0.9889282328991555    0.0000000000000000    -0.0875483946809154    0.0866103010448869
    0.9864668810317028    0.0000000000000000    -0.0876793544428906    0.0863974250407529
    0.9837397553510812    0.0000000000000000    -0.0878232923516648    0.0861615664089268
    0.9807008499767846    0.0000000000000000    -0.0879822008865930    0.0858987470691185
    0.9773382433209292    0.0000000000000000    -0.0881562509857403    0.0856079375569162
    0.9736518047041329    0.0000000000000000    -0.0883448846618009    0.0852891278968178
    0.9696442225846340    0.0000000000000000    -0.0885474637126933    0.0849425529365872
    0.9653189206000548    0.0000000000000000    -0.0887631534247362    0.0845685102976174
    0.9606796824096193    0.0000000000000000    -0.0889911073437304    0.0841673291925974
    0.9557305899420214    0.0000000000000000    -0.0892304892176484    0.0837393652140232
    0.9504760284270048    0.0000000000000000    -0.0894804154745543    0.0832850002840314
    0.9449205095612854    0.0000000000000000    -0.0897399247931929    0.0828046270083075
    0.9390689665309537    0.0000000000000000    -0.0900080254164735    0.0822986746447882
    0.9329265026192104    0.0000000000000000    -0.0902838330220348    0.0817675883915464
    0.9264984202253856    0.0000000000000000    -0.0905662390414364    0.0812118291145940
    0.9197901822688550    0.0000000000000000    -0.0908543518188267    0.0806318736630982
    0.9128076889043371    0.0000000000000000    -0.0911470692735890    0.0800282352607916
    0.9055568276244799    0.0000000000000000    -0.0914434340583981    0.0794014274365848
    0.8980437368263949    0.0000000000000000    -0.0917423565219480    0.0787519844975633
    0.8902747808920424    0.0000000000000000    -0.0920428995373257    0.0780804618272567
    0.8822565138628136    0.0000000000000000    -0.0923440098174381    0.0773874303462540
    0.8739954809338428    0.0000000000000000    -0.0926447352033009    0.0766734612000996
    0.8654985998809366    0.0000000000000000    -0.0929439682215402    0.0759391564987350
    0.8567727643727778    0.0000000000000000    -0.0932408769491247    0.0751851188465929
    0.8478251298596717    0.0000000000000000    -0.0935343728367713    0.0744119711982208
    0.8386628306875537    0.0000000000000000    -0.0938236085575639    0.0736203369631801
    0.8292932604668408    0.0000000000000000    -0.0941075089195990    0.0728108598402465
    0.8197238465364762    0.0000000000000000    -0.0943852971038695    0.0719841893280173
    0.8099620378265513    0.0000000000000000    -0.0946559495020622    0.0711409743453936
    0.8000155060056500    0.0000000000000000    -0.0949186321413933    0.0702818849435003
    0.7898918687214120    0.0000000000000000    -0.0951724446206867    0.0694075857674641
    0.7795988029998853    0.0000000000000000    -0.0954164917335944    0.0685187465701225
    0.7691442139614253    0.0000000000000000    -0.0956500066756831    0.0676160581232015
    0.7585357857756208    0.0000000000000000    -0.0958720125961960    0.0667001897146675
    0.7477814834278718    0.0000000000000000    -0.0960817423189652    0.0657718370518984
    0.7368891555842367    0.0000000000000000    -0.0962783904444962    0.0648316852368708
    0.7258667190540677    0.0000000000000000    -0.0964610565684083    0.0638804240233697
    0.7147220773352956    0.0000000000000000    -0.0966289924416941    0.0629187435370430
    0.7034630803923960    0.0000000000000000    -0.0967813778207400    0.0619473282578027
    0.6920977034389182    0.0000000000000000    -0.0969173286290257    0.0609668724713903
    0.6806337918934844    0.0000000000000000    -0.0970360765784832    0.0599780603358296
    0.6690792486038788    0.0000000000000000    -0.0971368808424771    0.0589815810461159
    0.6574418777943833    0.0000000000000000    -0.0972187601154459    0.0579781119348958
    0.6457295209865492    0.0000000000000000    -0.0972809906427017    0.0569683363703654
    0.6339499681182588    0.0000000000000000    -0.0973227544076280    0.0559529316830975
    0.6221108835522671    0.0000000000000000    -0.0973433009375383    0.0549325648231037
    0.6102199569762945    0.0000000000000000    -0.0973415902924586    0.0539079005127731
    0.5982848452867984    0.0000000000000000    -0.0973169573554244    0.0528796051110555
    0.5863130454268628    0.0000000000000000    -0.0972685136021169    0.0518483275670351
    0.5743120468735015    0.0000000000000000    -0.0971954558638828    0.0508147167024042
    0.5622893423497430    0.0000000000000000    -0.0970969438609046    0.0497794203656080
    0.5502521948602066    0.0000000000000000    -0.0969720274671673    0.0487430641860601
    0.5382078518236426    0.0000000000000000    -0.0968199346899752    0.0477062742186390
    0.5261636271815462    0.0000000000000000    -0.0966398170872438    0.0466696801644010
    0.5141264714632996    0.0000000000000000    -0.0964308766919402    0.0456338803164820
    0.5021035198270738    0.0000000000000000    -0.0961922568993714    0.0445994868164136
    0.4901016040471688    0.0000000000000000    -0.0959231493527426    0.0435670854027587
    0.4781276198220610    0.0000000000000000    -0.0956226989346121    0.0425372652738080
    0.4661882420401469    0.0000000000000000    -0.0952901807898598    0.0415105976157904
    0.4542901295378670    0.0000000000000000    -0.0949247115992478    0.0404876481246838
    0.4424398316292297    0.0000000000000000    -0.0945256340514291    0.0394689756118479
    0.4306437957567368    0.0000000000000000    -0.0940920874672528    0.0384551249912912
    0.4189083278791941    0.0000000000000000    -0.0936234605557403    0.0374466320082629
    0.4072396830198102    0.0000000000000000    -0.0931190403421809    0.0364440245190052
    0.3956439880301161    0.0000000000000000    -0.0925782110843727    0.0354478195272569
    0.3841272549011876    0.0000000000000000    -0.0920003021170501    0.0344585213136173
    0.3726954196891654    0.0000000000000000    -0.0913848268466495    0.0334766294444160
    0.3613542490820691    0.0000000000000000    -0.0907311828951052    0.0325026247598687
    0.3501094635207664    0.0000000000000000    -0.0900389545536768    0.0315369859657291
    0.3389666405207379    0.0000000000000000    -0.0893076500373482    0.0305801758975741
    0.3279312862066490    0.0000000000000000    -0.0885369096775363    0.0296326519526149
    0.3170087582587371    0.0000000000000000    -0.0877263608185430    0.0286948563778554
    0.3062043067833428    0.0000000000000000    -0.0868758345456513    0.0277672246782657
    0.2955231012617218    0.0000000000000000    -0.0859850576630521    0.0268501807446869
    0.2849701416270136    0.0000000000000000    -0.0850539852100098    0.0259441372145322
    0.2745503755772063    0.0000000000000000    -0.0840824853863112    0.0250494977284432
    0.2642685877541454    0.0000000000000000    -0.0830705804050496    0.0241666535005101
    0.2541295275924540    0.0000000000000000    -0.0820183529703016    0.0232959917379253
    0.2441377011703594    0.0000000000000000    -0.0809259318071014    0.0224378779118392
    0.2342976377622108    0.0000000000000000    -0.0797935224599300    0.0215926787064976
    0.2246136930539535    0.0000000000000000    -0.0786212629331331    0.0207607415317739
    0.2150901089883633    0.0000000000000000    -0.0774095654833644    0.0199424091114236
    0.2057309986885229    0.0000000000000000    -0.0761589470222148    0.0191380138434075
    0.1965403710412943    0.0000000000000000    -0.0748699190809887    0.0183478765577483
    0.1875221274507055    0.0000000000000000    -0.0735430249226425    0.0175723071461898
    0.1786800533965334    0.0000000000000000    -0.0721789360298999    0.0168116068637388
    0.1700178715907157    0.0000000000000000    -0.0707780154931896    0.0160660582063305
    0.1615390807413916    0.0000000000000000    -0.0693413060951613    0.0153359442120681
    0.1532471354380504    0.0000000000000000    -0.0678696710014962    0.0146215353145489
    0.1451453508267093    0.0000000000000000    -0.0663640284891045    0.0139230890212000
    0.1372369275180177    0.0000000000000000    -0.0648252382008181    0.0132408475745834
    0.1295250368492588    0.0000000000000000    -0.0632539814610880    0.0125750393316013
    0.1220125893219688    0.0000000000000000    -0.0616516983334208    0.0119258959203987
    0.1147024288187595    0.0000000000000000    -0.0600194790175266    0.0112936263216751
    0.1075973172530666    0.0000000000000000    -0.0583584102812296    0.0106784275497991
    0.1007000135192868    0.0000000000000000    -0.0566691859782367    0.0100804732100576
    0.0940128980817008    0.0000000000000000    -0.0549534914829053    0.0094999425640991
    0.0875383748731906    0.0000000000000000    -0.0532125729590547    0.0089369918989194
    0.0812787940582496    0.0000000000000000    -0.0514474362769377    0.0083917539318010
    0.0752364177093625    0.0000000000000000    -0.0496590683809330    0.0078643428640305
    0.0694131696387216    0.0000000000000000    -0.0478491595676758    0.0073548703942051
    0.0638110000490713    0.0000000000000000    -0.0460189275234342    0.0068634162342029
    0.0584319638364263    0.0000000000000000    -0.0441690344262682    0.0063900231904682
    0.0532776804074899    0.0000000000000000    -0.0423010167972464    0.0059347296804315
    0.0483497111807480    0.0000000000000000    -0.0404162191076409    0.0054975418214292
    0.0436497145212798    0.0000000000000000    -0.0385154333826776    0.0050784179183729
    0.0391792808808873    0.0000000000000000    -0.0365994157897518    0.0046772784822324
    0.0349395340000456    0.0000000000000000    -0.0346696407868948    0.0042940224343364
    0.0309317699707208    0.0000000000000000    -0.0327269378854993    0.0039284840354753
    0.0271576879003419    0.0000000000000000    -0.0307711846230347    0.0035804113347714
    0.0236181461137619    0.0000000000000000    -0.0288036620884569    0.0032495334353114
    0.0203143215713623    0.0000000000000000    -0.0268248303767322    0.0029354819552037
    0.0172476835938085    0.0000000000000000    -0.0248345861864152    0.0026377855871245
    0.0144200214408840    0.0000000000000000    -0.0228324391205561    0.0023558625489574
    0.0118325973581079    0.0000000000000000    -0.0208186865872619    0.0020890509494856
    0.0094875041961017    0.0000000000000000    -0.0187927020810150    0.0018365334535060
    0.0073874216683976    0.0000000000000000    -0.0167536374553024    0.0015973473654500
    0.0055360036182321    0.0000000000000000    -0.0147004203435870    0.0013703700833323
    0.0039380089559984    0.0000000000000000    -0.0126321863109595    0.0011543244182810
    0.0025986452423013    0.0000000000000000    -0.0105491619141703    0.0009478073299374
    0.0015244666569742    0.0000000000000000    -0.0084522477776332    0.0007492611808730
    0.0007222894570020    0.0000000000000000    -0.0063436753520918    0.0005569901592517
    0.0001983934200780    0.0000000000000000    -0.0042274596470761    0.0003692042967371
    -0.0000426752674514    0.0000000000000000    -0.0021110284668921    0.0001842011633045
    0.0000000000000003    0.0000000000000000    -0.0000000000000488    0.0000000000000213
    0.0003245550208817    0.0000000000000000    0.0020863664828781    0.0001842011365628
    0.0009294706392780    0.0000000000000000    0.0041287838604233    0.0003692042637751
    0.0018128898245777    0.0000000000000000    0.0061218731003194    0.0005569900279151
    0.0029690250850081    0.0000000000000000    0.0080591172557121    0.0007492611290900
    0.0043910144300980    0.0000000000000000    0.0099376421913960    0.0009478071928886
    0.0060717382668543    0.0000000000000000    0.0117564459692901    0.0011543243586154
    0.0080046039550723    0.0000000000000000    0.0135157678791344    0.0013703700041995
    0.0101844287469817    0.0000000000000000    0.0152162997468040    0.0015973473656371
    0.0126066869240731    0.0000000000000000    0.0168597089583713    0.0018365333583051
    0.0152679596761800    0.0000000000000000    0.0184476950714582    0.0020890509032806
    0.0181657586655319    0.0000000000000000    0.0199815546388251    0.0023558625798298
    0.0212981314657554    0.0000000000000000    0.0214622662120831    0.0026377856082538
    0.0246637827608538    0.0000000000000000    0.0228897598802789    0.0029354820873217
    0.0282610337746405    0.0000000000000000    0.0242648294542889    0.0032495336730869
    0.0320884600393754    0.0000000000000000    0.0255878201904522    0.0035804113289394
    0.0361448135580531    0.0000000000000000    0.0268585084572663    0.0039284841970048
    0.0404290442375839    0.0000000000000000    0.0280757483445200    0.0042940226421418
    0.0449394749765019    0.0000000000000000    0.0292399894809492    0.0046772785714932
    0.0496747093592092    0.0000000000000000    0.0303506154816375    0.0050784182357618
    0.0546333704857034    0.0000000000000000    0.0314063781454194    0.0054975421126116
    0.0598137647955355    0.0000000000000000    0.0324068123582108    0.0059347301257969
    0.0652141236720354    0.0000000000000000    0.0333514072194987    0.0063900233631016
    0.0708326643550379    0.0000000000000000    0.0342391482304834    0.0068634163414040
    0.0766675398856193    0.0000000000000000    0.0350687572639643    0.0073548699893761
    0.0827166080744348    0.0000000000000000    0.0358399842133395    0.0078643429114007
    0.0889777407484474    0.0000000000000000    0.0365519270691621    0.0083917542303205
    0.0954487372336814    0.0000000000000000    0.0372032825573712    0.0089369921868308
    0.1021272058652869    0.0000000000000000    0.0377934708827752    0.0094999431196608
    0.1090106552420593    0.0000000000000000    0.0383218835806858    0.0100804733441470
    0.1160965048052276    0.0000000000000000    0.0387877479688541    0.0106784279381108
    0.1233821143461001    0.0000000000000000    0.0391897805298953    0.0112936263217686
    0.1308646496443089    0.0000000000000000    0.0395278141390847    0.0119258961618245
    0.1385411994341154    0.0000000000000000    0.0398012284516583    0.0125750394481426
    0.1464087753491299    0.0000000000000000    0.0400094622211568    0.0132408477999429
    0.1544642597422126    0.0000000000000000    0.0401515878203753    0.0139230891300138
    0.1627044121192114    0.0000000000000000    0.0402274961062404    0.0146215354196726
    0.1711259308939361    0.0000000000000000    0.0402368925649412    0.0153359443138321
    0.1797253915025294    0.0000000000000000    0.0401794448279347    0.0160660582062707
    0.1884992422763788    0.0000000000000000    0.0400549064375326    0.0168116067687476
    0.1974438569083077    0.0000000000000000    0.0398628617086132    0.0175723070543474
    0.2065555055423545    0.0000000000000000    0.0396035920868201    0.0183478763801768
    0.2158303445822298    0.0000000000000000    0.0392771047657092    0.0191380137575515
    0.2252644359338376    0.0000000000000000    0.0388835236520464    0.0199424088624443
    0.2348537447367108    0.0000000000000000    0.0384230633880521    0.0207607413713670
    0.2445941289712721    0.0000000000000000    0.0378959105962338    0.0215926784737431
    0.2544813398761505    0.0000000000000000    0.0373023995997244    0.0224378775369207
    0.2645110652721883    0.0000000000000000    0.0366431656922259    0.0232959914480831
    0.2746788073793880    0.0000000000000000    0.0359187743964284    0.0241666531501807
    0.2849801078478720    0.0000000000000000    0.0351298999709613    0.0250494975253958
    0.2954102724384028    0.0000000000000000    0.0342772560096521    0.0259441368217474
    0.3059645895619098    0.0000000000000000    0.0333616997260293    0.0268501806814219
    0.3166382030804868    0.0000000000000000    0.0323841458543796    0.0277672241893584
    0.3274262052706831    0.0000000000000000    0.0313456033904416    0.0286948563187927
    0.3383235432111177    0.0000000000000000    0.0302471314283466    0.0296326514392513
    0.3493250862780712    0.0000000000000000    0.0290899267437794    0.0305801758975012
    0.3604256112086262    0.0000000000000000    0.0278751530820287    0.0315369854336922
    0.3716197706472713    0.0000000000000000    0.0266042655097678    0.0325026247598880
    0.3829021442234364    0.0000000000000000    0.0252785684213279    0.0334766289485132
    0.3942671832525377    0.0000000000000000    0.0238996092874331    0.0344585212657626
    0.4057093009193977    0.0000000000000000    0.0224688416873847    0.0354478190193676
    0.4172227485089480    0.0000000000000000    0.0209879203409216    0.0364440244744028
    0.4288017088375966    0.0000000000000000    0.0194584012510646    0.0374466315355781
    0.4404402680445685    0.0000000000000000    0.0178821031669969    0.0384551249498498
    0.4521323769539549    0.0000000000000000    0.0162606659603028    0.0394689751725469
    0.4638719448704479    0.0000000000000000    0.0145959388091228    0.0404876481247397
    0.4756527581213277    0.0000000000000000    0.0128897330366087    0.0415105972449359
    0.4874684940190548    0.0000000000000000    0.0111439816892443    0.0425372652381023
    0.4993127359390144    0.0000000000000000    0.0093605699392399    0.0435670850244834
    0.5111790479577962    0.0000000000000000    0.0075415043116749    0.0445994866840253
    0.5230607782119989    0.0000000000000000    0.0056887167360458    0.0456338800298618
    0.5349513462298887    0.0000000000000000    0.0038042712580691    0.0466696800419647
    0.5468438675068228    0.0000000000000000    0.0018901762536245    0.0477062739535969
    0.5587316411919119    0.0000000000000000    -0.0000515123975120    0.0487430639879693
    0.5706076091927059    0.0000000000000000    -0.0020187187792758    0.0497794202025429
    0.5824647676002996    0.0000000000000000    -0.0040094315483686    0.0508147164936627
    0.5942961316613662    0.0000000000000000    -0.0060214204057872    0.0518483274668763
    0.6060944041488767    0.0000000000000000    -0.0080526072117167    0.0528795997093506
    0.6178525341140357    0.0000000000000000    -0.0101008344054918    0.0539079004897714
    0.6295631062231450    0.0000000000000000    -0.0121640060352774    0.0549325646906748
    0.6412187622485988    0.0000000000000000    -0.0142400573217998    0.0559529316619935
    0.6528121030908380    0.0000000000000000    -0.0163267067572690    0.0569683362287409
    0.6643357173125821    0.0000000000000000    -0.0184218138565412    0.0579781118382135
    0.6757820721238659    0.0000000000000000    -0.0205232574333607    0.0589815809536832
    0.6871435711362892    0.0000000000000000    -0.0226289593510743    0.0599780602299184
    0.6984127010398424    0.0000000000000000    -0.0247365757567053    0.0609668724376481
    0.7095818037955155    0.0000000000000000    -0.0268440492966491    0.0619473281774187
    0.7206432911315801    0.0000000000000000    -0.0289492090563144    0.0629187435217064
    0.7315894576435369    0.0000000000000000    -0.0310498551760361    0.0638804239504627
    0.7424127196051415    0.0000000000000000    -0.0331437647857698    0.0648316851953424
    0.7531054204384020    0.0000000000000000    -0.0352288638317546    0.0657718369926711
    0.7636599206104790    0.0000000000000000    -0.0373028834267685    0.0667001896209894
    0.7740686342844469    0.0000000000000000    -0.0393636248231601    0.0676160581173320
    0.7843238437187097    0.0000000000000000    -0.0414090291833559    0.0685187465140720
    0.7944181567944781    0.0000000000000000    -0.0434367352107401    0.0694075857303046
    0.8043439190437880    0.0000000000000000    -0.0454446447294785    0.0702818849034404
    0.8140937261725867    0.0000000000000000    -0.0474305356096351    0.0711409743028656
    0.8236602340764989    0.0000000000000000    -0.0493921816385239    0.0719841893235186
    0.8330360279088893    0.0000000000000000    -0.0513274812974771    0.0728108597900637
    0.8422139548490293    0.0000000000000000    -0.0532340736583592    0.0736203369239436
    0.8511868338273700    0.0000000000000000    -0.0551099206598238    0.0744119711834592
    0.8599475678291810    0.0000000000000000    -0.0569527073908631    0.0751851188156458
    0.8684892817659602    0.0000000000000000    -0.0587603178534622    0.0759391564923406
    0.8768051132119297    0.0000000000000000    -0.0605304913160296    0.0766734611643197
    0.8848884228035274    0.0000000000000000    -0.0622611529713382    0.0773874303255372
    0.8927325880621879    0.0000000000000000    -0.0639500350339972    0.0780804618233980
    0.9003313251605221    0.0000000000000000    -0.0655951022160437    0.0787519844621219
    0.9076783686171268    0.0000000000000000    -0.0671941095514583    0.0794014274136876
    0.9147676108716496    0.0000000000000000    -0.0687450586758800    0.0800282352528549
    0.9215931932400849    0.0000000000000000    -0.0702458421152272    0.0806318736403685
    0.9281494890286694    0.0000000000000000    -0.0716944362642877    0.0812118291071462
    0.9344308746293848    0.0000000000000000    -0.0730887822619408    0.0817675883803209
    0.9404321260068684    0.0000000000000000    -0.0744270413116013    0.0822986746245911
    0.9461482178354572    0.0000000000000000    -0.0757071550093897    0.0828046270056121
    0.9515742723629614    0.0000000000000000    -0.0769274298447655    0.0832850002802803
    0.9567056053526528    0.0000000000000000    -0.0780860120779181    0.0837393652067186
    0.9615379428546476    0.0000000000000000    -0.0791811455663947    0.0841673291917404
    0.9660671161201435    0.0000000000000000    -0.0802112394967977    0.0845685102938719
    0.9702892525781976    0.0000000000000000    -0.0811747371479469    0.0849425529320266
    0.9742007737885103    0.0000000000000000    -0.0820701393179348    0.0852891278953806
    0.9777984502307788    0.0000000000000000    -0.0828960619378094    0.0856079375530524
    0.9810797488068772    0.0000000000000000    -0.0836513674413695    0.0858987470680325
    0.9840448919997016    0.0000000000000000    -0.0843355644984314    0.0861615664077415
    0.9867055921508268    0.0000000000000000    -0.0849508738680953    0.0863974250401020
    0.9891068099024949    0.0000000000000000    -0.0855072501921654    0.0866103010446805
    0.9913436272657350    0.0000000000000000    -0.0860264812948586    0.0868086190959736
    0.9934795646314569    0.0000000000000000    -0.0865231749766835    0.0869980082897697
    0.9952826683491196    0.0000000000000000    -0.0869431181948954    0.0871578972432246
    0.9961946980917560    0.0000000000000000    -0.0871557427476333    0.0872387747306467
    0.9963741402417554    0.0000000000000000    -0.0871714090405771    0.0872544769555192
    0.9953780410279762    0.0000000000000000    -0.0877420413686565    0.0871722710756993
    0.9935688550035877    0.0000000000000000    -0.0882656489674077    0.0870190598171196
    0.9914034311601938    0.0000000000000000    -0.0887332012297719    0.0868344936963104
    0.9891189632355690    0.0000000000000000    -0.0891410039182858    0.0866391475268994
    0.9866630822207583    0.0000000000000000    -0.0895234368717226    0.0864287362555567
    0.9839424223266633    0.0000000000000000    -0.0899047530206616    0.0861953375604412
    0.9809100325106215    0.0000000000000000    -0.0902922792505336    0.0859349345017746
    0.9775534574811502    0.0000000000000000    -0.0906868164044425    0.0856464575507929
    0.9738725347191632    0.0000000000000000    -0.0910881712082912    0.0853298980745667
    0.9698699213452642    0.0000000000000000    -0.0914960645394558    0.0849854921915643
    0.9655501913773605    0.0000000000000000    -0.0919115603485636    0.0846136537878611
    0.9609162177388555    0.0000000000000000    -0.0923353334941837    0.0842146465946154
    0.9559720573324455    0.0000000000000000    -0.0927668351452837    0.0837888279026169
    0.9507221538126771    0.0000000000000000    -0.0932058835161768    0.0833365920383588
    0.9451710829869171    0.0000000000000000    -0.0936521541516271    0.0828583441340913
    0.9393236214275760    0.0000000000000000    -0.0941050794054874    0.0823545052131336
    0.9331846764667944    0.0000000000000000    -0.0945639647813863    0.0818255070227965
    0.9267597158700767    0.0000000000000000    -0.0950278648132326    0.0812718281805252
    0.9200540916357625    0.0000000000000000    -0.0954957894085666    0.0806939371931703
    0.9130735263759675    0.0000000000000000    -0.0959666155103704    0.0800923338179159
    0.9058240480907784    0.0000000000000000    -0.0964391487306103    0.0794675438945911
    0.8983116285508572    0.0000000000000000    -0.0969121533767066    0.0788200881463325
    0.8905427160727584    0.0000000000000000    -0.0973844177747835    0.0781505289757556
    0.8825237062225426    0.0000000000000000    -0.0978546490775187    0.0774594235354382
    0.8742613498429819    0.0000000000000000    -0.0983215968051284    0.0767473601977647
    0.8657623395159249    0.0000000000000000    -0.0987839923522600    0.0760149220845165
    0.8570337224394962    0.0000000000000000    -0.0992406169416640    0.0752627235418499
    0.8480825451525220    0.0000000000000000    -0.0996902592261080    0.0744913788114401
    0.8389160314863204    0.0000000000000000    -0.1001317328165073    0.0737015176970401
    0.8295415241786941    0.0000000000000000    -0.1005638598608840    0.0728937802187750
    0.8199664178575858    0.0000000000000000    -0.1009855531262005    0.0720688117207309
    0.8101982899744939    0.0000000000000000    -0.1013956871566890    0.0712272727890412
    0.8002446533854481    0.0000000000000000    -0.1017931907346608    0.0703698188311605
    0.7901133150745068    0.0000000000000000    -0.1021770501307983    0.0694971310874075
    0.7798118448083926    0.0000000000000000    -0.1025462271761413    0.0686098698169251
    0.7693482231230178    0.0000000000000000    -0.1028997757208501    0.0677087315870113
    0.7587301349544475    0.0000000000000000    -0.1032367087621040    0.0667943866360295
    0.7479654404227745    0.0000000000000000    -0.1035560883327662    0.0658675206875409
    0.7370621154806258    0.0000000000000000    -0.1038570202073501    0.0649288296509051
    0.7260280179660583    0.0000000000000000    -0.1041385923136389    0.0639789986668550
    0.7148710605335111    0.0000000000000000    -0.1043999497366315    0.0630187179879633
    0.7035992181222355    0.0000000000000000    -0.1046402093353294    0.0620486825194575
    0.6922203420630240    0.0000000000000000    -0.1048585331422487    0.0610695765763733
    0.6807422855907532    0.0000000000000000    -0.1050540609922166    0.0600820840238074
    0.6691730168113850    0.0000000000000000    -0.1052259875616030    0.0590868988290676
    0.6575202689273283    0.0000000000000000    -0.1053734569528402    0.0580846934537510
    0.6457919499999321    0.0000000000000000    -0.1054956660009339    0.0570761556679115
    0.6339957308902058    0.0000000000000000    -0.1055917870223837    0.0560619518972057
    0.6221394560776616    0.0000000000000000    -0.1056610597508794    0.0550427637608108
    0.6102307416041413    0.0000000000000000    -0.1057025991795442    0.0540192507258454
    0.5982771914953844    0.0000000000000000    -0.1057156576111921    0.0529920725344840
    0.5862862374777364    0.0000000000000000    -0.1056994049114977    0.0519618721275150
    0.5742656081636710    0.0000000000000000    -0.1056530368720772    0.0509293174646832
    0.5622226103866410    0.0000000000000000    -0.1055757833102788    0.0498950398314838
    0.5501645003312206    0.0000000000000000    -0.1054667686557806    0.0488596635809856
    0.5380987203330108    0.0000000000000000    -0.1053250402973589    0.0478238267925732
    0.5260323864997076    0.0000000000000000    -0.1051499569166410    0.0467881431286260
    0.5139727288675431    0.0000000000000000    -0.1049409431428927    0.0457532360757524
    0.5019266205705719    0.0000000000000000    -0.1046973997994414    0.0447196971711307
    0.4899009676583432    0.0000000000000000    -0.1044186932098725    0.0436881191377862
    0.4779023175959197    0.0000000000000000    -0.1041038408332824    0.0426590568671849
    0.4659376492460581    0.0000000000000000    -0.1037517148510218    0.0416330977418964
    0.4540137853746273    0.0000000000000000    -0.1033616069340297    0.0406108210400076
    0.4421371811469612    0.0000000000000000    -0.1029329074183849    0.0395927749653792
    0.4303143537311769    0.0000000000000000    -0.1024649820520053    0.0385795108016897
    0.4185516362944668    0.0000000000000000    -0.1019572478360473    0.0375715635201884
    0.4068552703760986    0.0000000000000000    -0.1014091435786852    0.0365694588734345
    0.3952314071389651    0.0000000000000000    -0.1008201151395341    0.0355737131993950
    0.3836860770553301    0.0000000000000000    -0.1001896202075940    0.0345848307907566
    0.3722252427961052    0.0000000000000000    -0.0995172077395452    0.0336033100548584
    0.3608547179586310    0.0000000000000000    -0.0988024210698697    0.0326296344639051
    0.3495802496240401    0.0000000000000000    -0.0980448799761575    0.0316642813349931
    0.3384074332155649    0.0000000000000000    -0.0972442282975621    0.0307077133733819
    0.3273418292735641    0.0000000000000000    -0.0964001666487349    0.0297603892435772
    0.3163888137443961    0.0000000000000000    -0.0955124542361432    0.0288227509799600