VARIABLES = "X" "Y" "Z" "DispMag"
ZONE T="5deg_def"    I=257    J=129    K=1    F=POINT
    0.9961946980917455    0.0000000000000000    -0.0871557427476585    0.0872387747306723
    0.9952596025039147    0.0000000000000000    -0.0872067620130520    0.0871578972432218
    0.9934109695058769    0.0000000000000000    -0.0873072208496501    0.0869980082897564
    0.9912212316623858    0.0000000000000000    -0.0874254694426635    0.0868086190960377
    0.9889282328990612    0.0000000000000000    -0.0875483946809202    0.0866103010448959
    0.9864668810318021    0.0000000000000000    -0.0876793544429325    0.0863974250407903
    0.9837397553510867    0.0000000000000000    -0.0878232923516531    0.0861615664089148
    0.9807008499767220    0.0000000000000000    -0.0879822008865760    0.0858987470691044
    0.9773382433209299    0.0000000000000000    -0.0881562509856973    0.0856079375568733
    0.9736518047042924    0.0000000000000000    -0.0883448846617858    0.0852891278967952
    0.9696442225845547    0.0000000000000000    -0.0885474637127052    0.0849425529366030
    0.9653189205998951    0.0000000000000000    -0.0887631534247331    0.0845685102976220
    0.9606796824095969    0.0000000000000000    -0.0889911073437081    0.0841673291925762
    0.9557305899419911    0.0000000000000000    -0.0892304892176674    0.0837393652140438
    0.9504760284270013    0.0000000000000000    -0.0894804154745747    0.0832850002840520
    0.9449205095613760    0.0000000000000000    -0.0897399247931992    0.0828046270083091
    0.9390689665309282    0.0000000000000000    -0.0900080254164589    0.0822986746447750
    0.9329265026191236    0.0000000000000000    -0.0902838330220163    0.0817675883915324
    0.9264984202253943    0.0000000000000000    -0.0905662390414252    0.0812118291145824
    0.9197901822687529    0.0000000000000000    -0.0908543518188570    0.0806318736631341
    0.9128076889042778    0.0000000000000000    -0.0911470692735843    0.0800282352607902
    0.9055568276245107    0.0000000000000000    -0.0914434340583414    0.0794014274365265
    0.8980437368263866    0.0000000000000000    -0.0917423565219412    0.0787519844975570
    0.8902747808920083    0.0000000000000000    -0.0920428995373072    0.0780804618272403
    0.8822565138631282    0.0000000000000000    -0.0923440098174616    0.0773874303462583
    0.8739954809339563    0.0000000000000000    -0.0926447352032951    0.0766734612000868
    0.8654985998808815    0.0000000000000000    -0.0929439682215201    0.0759391564987184
    0.8567727643727704    0.0000000000000000    -0.0932408769490968    0.0751851188465655
    0.8478251298596762    0.0000000000000000    -0.0935343728367283    0.0744119711981776
    0.8386628306874241    0.0000000000000000    -0.0938236085575573    0.0736203369631824
    0.8292932604667530    0.0000000000000000    -0.0941075089196068    0.0728108598402604
    0.8197238465364782    0.0000000000000000    -0.0943852971038282    0.0719841893279759
    0.8099620378266639    0.0000000000000000    -0.0946559495020617    0.0711409743453850
    0.8000155060057393    0.0000000000000000    -0.0949186321414040    0.0702818849435042
    0.7898918687215293    0.0000000000000000    -0.0951724446206755    0.0694075857674439
    0.7795988029996900    0.0000000000000000    -0.0954164917335843    0.0685187465701277
    0.7691442139614691    0.0000000000000000    -0.0956500066757055    0.0676160581232203
    0.7585357857754927    0.0000000000000000    -0.0958720125962292    0.0667001897147110
    0.7477814834278603    0.0000000000000000    -0.0960817423189459    0.0657718370518801
    0.7368891555841124    0.0000000000000000    -0.0962783904445138    0.0648316852368991
    0.7258667190539927    0.0000000000000000    -0.0964610565683877    0.0638804240233558
    0.7147220773353467    0.0000000000000000    -0.0966289924417152    0.0629187435370594
    0.7034630803924368    0.0000000000000000    -0.0967813778206965    0.0619473282577555
    0.6920977034387965    0.0000000000000000    -0.0969173286290171    0.0609668724713934
    0.6806337918931620    0.0000000000000000    -0.0970360765784794    0.0599780603358574
    0.6690792486040178    0.0000000000000000    -0.0971368808424599    0.0589815810460849
    0.6574418777943740    0.0000000000000000    -0.0972187601154648    0.0579781119349156
    0.6457295209868014    0.0000000000000000    -0.0972809906426701    0.0569683363703073
    0.6339499681183703    0.0000000000000000    -0.0973227544076178    0.0559529316830752
    0.6221108835521997    0.0000000000000000    -0.0973433009374790    0.0549325648230523
    0.6102199569764829    0.0000000000000000    -0.0973415902924986    0.0539079005127912
    0.5982848452866887    0.0000000000000000    -0.0973169573554795    0.0528796051111231
    0.5863130454268972    0.0000000000000000    -0.0972685136021554    0.0518483275670692
    0.5743120468735385    0.0000000000000000    -0.0971954558638917    0.0508147167024085
    0.5622893423498471    0.0000000000000000    -0.0970969438609096    0.0497794203655997
    0.5502521948600632    0.0000000000000000    -0.0969720274671349    0.0487430641860467
    0.5382078518237666    0.0000000000000000    -0.0968199346899871    0.0477062742186342
    0.5261636271813372    0.0000000000000000    -0.0966398170872549    0.0466696801644408
    0.5141264714631991    0.0000000000000000    -0.0964308766919223    0.0456338803164785
    0.5021035198268782    0.0000000000000000    -0.0961922568993455    0.0445994868164164
    0.4901016040471361    0.0000000000000000    -0.0959231493527345    0.0435670854027556
    0.4781276198220918    0.0000000000000000    -0.0956226989345836    0.0425372652737752
    0.4661882420402373    0.0000000000000000    -0.0952901807898607    0.0415105976157771
    0.4542901295377285    0.0000000000000000    -0.0949247115992831    0.0404876481247410
    0.4424398316291057    0.0000000000000000    -0.0945256340514476    0.0394689756118866
    0.4306437957566309    0.0000000000000000    -0.0940920874672256    0.0384551249912825
    0.4189083278792723    0.0000000000000000    -0.0936234605557256    0.0374466320082347
    0.4072396830198590    0.0000000000000000    -0.0931190403421934    0.0364440245190087
    0.3956439880298244    0.0000000000000000    -0.0925782110844192    0.0354478195273567
    0.3841272549011057    0.0000000000000000    -0.0920003021170465    0.0344585213136293
    0.3726954196891058    0.0000000000000000    -0.0913848268466674    0.0334766294444453
    0.3613542490821067    0.0000000000000000    -0.0907311828951234    0.0325026247598790
    0.3501094635207720    0.0000000000000000    -0.0900389545536489    0.0315369859657006
    0.3389666405207551    0.0000000000000000    -0.0893076500373149    0.0305801758975379
    0.3279312862067020    0.0000000000000000    -0.0885369096775400    0.0296326519526069
    0.3170087582586809    0.0000000000000000    -0.0877263608185250    0.0286948563778505
    0.3062043067832278    0.0000000000000000    -0.0868758345456632    0.0277672246783039
    0.2955231012618241    0.0000000000000000    -0.0859850576630420    0.0268501807446529
    0.2849701416271443    0.0000000000000000    -0.0850539852099698    0.0259441372144615
    0.2745503755770017    0.0000000000000000    -0.0840824853863504    0.0250494977285325
    0.2642685877540116    0.0000000000000000    -0.0830705804050192    0.0241666535005153
    0.2541295275923063    0.0000000000000000    -0.0820183529703143    0.0232959917379768
    0.2441377011704462    0.0000000000000000    -0.0809259318070852    0.0224378779117999
    0.2342976377622977    0.0000000000000000    -0.0797935224599139    0.0215926787064577
    0.2246136930537607    0.0000000000000000    -0.0786212629331187    0.0207607415318157
    0.2150901089882741    0.0000000000000000    -0.0774095654833852    0.0199424091114699
    0.2057309986885214    0.0000000000000000    -0.0761589470221726    0.0191380138433678
    0.1965403710413012    0.0000000000000000    -0.0748699190810022    0.0183478765577590
    0.1875221274507224    0.0000000000000000    -0.0735430249226016    0.0175723071461457
    0.1786800533965134    0.0000000000000000    -0.0721789360298806    0.0168116068637273
    0.1700178715907717    0.0000000000000000    -0.0707780154931483    0.0160660582062725
    0.1615390807413165    0.0000000000000000    -0.0693413060951754    0.0153359442121079
    0.1532471354381167    0.0000000000000000    -0.0678696710014667    0.0146215353144973
    0.1451453508267732    0.0000000000000000    -0.0663640284890908    0.0139230890211634
    0.1372369275180703    0.0000000000000000    -0.0648252382008547    0.0132408475745968
    0.1295250368494001    0.0000000000000000    -0.0632539814610211    0.0125750393314835
    0.1220125893219908    0.0000000000000000    -0.0616516983333883    0.0119258959203600
    0.1147024288186960    0.0000000000000000    -0.0600194790175344    0.0112936263217091
    0.1075973172531707    0.0000000000000000    -0.0583584102811822    0.0106784275497109
    0.1007000135193725    0.0000000000000000    -0.0566691859782334    0.0100804732100159
    0.0940128980818906    0.0000000000000000    -0.0549534914828729    0.0094999425639820
    0.0875383748731486    0.0000000000000000    -0.0532125729590593    0.0089369918989437
    0.0812787940581497    0.0000000000000000    -0.0514474362769326    0.0083917539318463
    0.0752364177091911    0.0000000000000000    -0.0496590683809584    0.0078643428641404
    0.0694131696387347    0.0000000000000000    -0.0478491595676811    0.0073548703942026
    0.0638110000492009    0.0000000000000000    -0.0460189275233885    0.0068634162340935
    0.0584319638364733    0.0000000000000000    -0.0441690344262943    0.0063900231904630
    0.0532776804074212    0.0000000000000000    -0.0423010167972137    0.0059347296804454
    0.0483497111806469    0.0000000000000000    -0.0404162191076312    0.0054975418214829
    0.0436497145213070    0.0000000000000000    -0.0385154333827103    0.0050784179183812
    0.0391792808808271    0.0000000000000000    -0.0365994157897704    0.0046772784822856
    0.0349395340001432    0.0000000000000000    -0.0346696407868754    0.0042940224342564
    0.0309317699708369    0.0000000000000000    -0.0327269378854834    0.0039284840353830
    0.0271576879004120    0.0000000000000000    -0.0307711846230172    0.0035804113347088
    0.0236181461136237    0.0000000000000000    -0.0288036620884600    0.0032495334354164
    0.0203143215712415    0.0000000000000000    -0.0268248303767254    0.0029354819552924
    0.0172476835936433    0.0000000000000000    -0.0248345861864307    0.0026377855872654
    0.0144200214409909    0.0000000000000000    -0.0228324391205441    0.0023558625488628
    0.0118325973581885    0.0000000000000000    -0.0208186865872002    0.0020890509493846
    0.0094875041959238    0.0000000000000000    -0.0187927020809634    0.0018365334536359
    0.0073874216681743    0.0000000000000000    -0.0167536374553006    0.0015973473656494
    0.0055360036181854    0.0000000000000000    -0.0147004203436416    0.0013703700833967
    0.0039380089559611    0.0000000000000000    -0.0126321863109589    0.0011543244183160
    0.0025986452422821    0.0000000000000000    -0.0105491619141672    0.0009478073299550
    0.0015244666568548    0.0000000000000000    -0.0084522477777157    0.0007492611810076
    0.0007222894567664    0.0000000000000000    -0.0063436753520794    0.0005569901594825
    0.0001983934201183    0.0000000000000000    -0.0042274596470917    0.0003692042966983
    -0.0000426752675027    0.0000000000000000    -0.0021110284669019    0.0001842011633560
    -0.0000000000000021    0.0000000000000000    -0.0000000000000274    0.0000000000000024
    0.0003245550207277    0.0000000000000000    0.0020863664828572    0.0001842011364121
    0.0009294706394199    0.0000000000000000    0.0041287838604437    0.0003692042639112
    0.0018128898245648    0.0000000000000000    0.0061218731003169    0.0005569900279032
    0.0029690250852222    0.0000000000000000    0.0080591172557565    0.0007492611292804
    0.0043910144301167    0.0000000000000000    0.0099376421914077    0.0009478071929017
    0.0060717382668284    0.0000000000000000    0.0117564459693248    0.0011543243585773
    0.0080046039551080    0.0000000000000000    0.0135157678790849    0.0013703700042543
    0.0101844287469938    0.0000000000000000    0.0152162997468001    0.0015973473656494
    0.0126066869241169    0.0000000000000000    0.0168597089584246    0.0018365333583113
    0.0152679596761234    0.0000000000000000    0.0184476950714602    0.0020890509032343
    0.0181657586654467    0.0000000000000000    0.0199815546388424    0.0023558625797533
    0.0212981314656903    0.0000000000000000    0.0214622662121324    0.0026377856081726
    0.0246637827608079    0.0000000000000000    0.0228897598803051    0.0029354820872705
    0.0282610337745134    0.0000000000000000    0.0242648294542665    0.0032495336730163
    0.0320884600394342    0.0000000000000000    0.0255878201904610    0.0035804113289714
    0.0361448135579159    0.0000000000000000    0.0268585084572287    0.0039284841969474
    0.0404290442376632    0.0000000000000000    0.0280757483445210    0.0042940226421890
    0.0449394749762619    0.0000000000000000    0.0292399894809311    0.0046772785713683
    0.0496747093592393    0.0000000000000000    0.0303506154816354    0.0050784182357803
    0.0546333704857565    0.0000000000000000    0.0314063781454174    0.0054975421126418
    0.0598137647956367    0.0000000000000000    0.0324068123582641    0.0059347301258033
    0.0652141236720022    0.0000000000000000    0.0333514072194886    0.0063900233630940
    0.0708326643550313    0.0000000000000000    0.0342391482305104    0.0068634163413770
    0.0766675398856511    0.0000000000000000    0.0350687572639942    0.0073548699893639
    0.0827166080743602    0.0000000000000000    0.0358399842133609    0.0078643429113488
    0.0889777407484342    0.0000000000000000    0.0365519270691902    0.0083917542302895
    0.0954487372338359    0.0000000000000000    0.0372032825573914    0.0089369921868746
    0.1021272058653502    0.0000000000000000    0.0377934708827742    0.0094999431196862
    0.1090106552419813    0.0000000000000000    0.0383218835806952    0.0100804733441092
    0.1160965048051444    0.0000000000000000    0.0387877479688553    0.0106784279380799
    0.1233821143458962    0.0000000000000000    0.0391897805298841    0.0112936263217091
    0.1308646496444162    0.0000000000000000    0.0395278141391322    0.0119258961618152
    0.1385411994340457    0.0000000000000000    0.0398012284516781    0.0125750394481015
    0.1464087753491341    0.0000000000000000    0.0400094622211723    0.0132408477999295
    0.1544642597423304    0.0000000000000000    0.0401515878203977    0.0139230891300270
    0.1627044121193084    0.0000000000000000    0.0402274961062405    0.0146215354196999
    0.1711259308936660    0.0000000000000000    0.0402368925649151    0.0153359443137839
    0.1797253915024930    0.0000000000000000    0.0401794448279230    0.0160660582062725
    0.1884992422763680    0.0000000000000000    0.0400549064375498    0.0168116067687282
    0.1974438569080578    0.0000000000000000    0.0398628617085899    0.0175723070543099
    0.2065555055424951    0.0000000000000000    0.0396035920868345    0.0183478763801953
    0.2158303445821524    0.0000000000000000    0.0392771047657078    0.0191380137575357
    0.2252644359340306    0.0000000000000000    0.0388835236520053    0.0199424088625254
    0.2348537447368956    0.0000000000000000    0.0384230633880929    0.0207607413713647
    0.2445941289715047    0.0000000000000000    0.0378959105962440    0.0215926784737787
    0.2544813398761295    0.0000000000000000    0.0373023995997410    0.0224378775369005
    0.2645110652720495    0.0000000000000000    0.0366431656922377    0.0232959914480464
    0.2746788073794013    0.0000000000000000    0.0359187743964173    0.0241666531501939
    0.2849801078476495    0.0000000000000000    0.0351298999709525    0.0250494975253676
    0.2954102724383374    0.0000000000000000    0.0342772560096368    0.0259441368217522
    0.3059645895619490    0.0000000000000000    0.0333616997260556    0.0268501806814018
    0.3166382030805560    0.0000000000000000    0.0323841458543862    0.0277672241893619
    0.3274262052707297    0.0000000000000000    0.0313456033904390    0.0286948563188018
    0.3383235432112679    0.0000000000000000    0.0302471314283867    0.0296326514392315
    0.3493250862780374    0.0000000000000000    0.0290899267437381    0.0305801758975379
    0.3604256112086734    0.0000000000000000    0.0278751530820741    0.0315369854336528
    0.3716197706472664    0.0000000000000000    0.0266042655097763    0.0325026247598790
    0.3829021442234975    0.0000000000000000    0.0252785684213068    0.0334766289485409
    0.3942671832526572    0.0000000000000000    0.0238996092874409    0.0344585212657672
    0.4057093009194293    0.0000000000000000    0.0224688416874222    0.0354478190193334
    0.4172227485090260    0.0000000000000000    0.0209879203408773    0.0364440244744543
    0.4288017088377761    0.0000000000000000    0.0194584012511157    0.0374466315355431
    0.4404402680446166    0.0000000000000000    0.0178821031670034    0.0384551249498473
    0.4521323769541194    0.0000000000000000    0.0162606659603437    0.0394689751725192
    0.4638719448704497    0.0000000000000000    0.0145959388091216    0.0404876481247411
    0.4756527581212648    0.0000000000000000    0.0128897330366083    0.0415105972449318
    0.4874684940189730    0.0000000000000000    0.0111439816892826    0.0425372652380585
    0.4993127359390293    0.0000000000000000    0.0093605699392373    0.0435670850244868
    0.5111790479577474    0.0000000000000000    0.0075415043116710    0.0445994866840264
    0.5230607782120211    0.0000000000000000    0.0056887167360257    0.0456338800298831
    0.5349513462297515    0.0000000000000000    0.0038042712580912    0.0466696800419356
    0.5468438675067144    0.0000000000000000    0.0018901762535746    0.0477062739536417
    0.5587316411917469    0.0000000000000000    -0.0000515123975325    0.0487430639879825
    0.5706076091926576    0.0000000000000000    -0.0020187187792595    0.0497794202025247
    0.5824647676001993    0.0000000000000000    -0.0040094315483537    0.0508147164936442
    0.5942961316612709    0.0000000000000000    -0.0060214204058105    0.0518483274668965
    0.6060944041489548    0.0000000000000000    -0.0080526072116831    0.0528795997093195
    0.6178525341140293    0.0000000000000000    -0.0101008344054829    0.0539079004897623
    0.6295631062232754    0.0000000000000000    -0.0121640060352601    0.0549325646906607
    0.6412187622485418    0.0000000000000000    -0.0142400573217530    0.0559529316619455
    0.6528121030906316    0.0000000000000000    -0.0163267067572894    0.0569683362287575
    0.6643357173124909    0.0000000000000000    -0.0184218138565461    0.0579781118382169
    0.6757820721239600    0.0000000000000000    -0.0205232574333414    0.0589815809536652
    0.6871435711362027    0.0000000000000000    -0.0226289593510941    0.0599780602299373
    0.6984127010398856    0.0000000000000000    -0.0247365757567555    0.0609668724376986
    0.7095818037955783    0.0000000000000000    -0.0268440492966585    0.0619473281774285
    0.7206432911314553    0.0000000000000000    -0.0289492090563611    0.0629187435217526
    0.7315894576434313    0.0000000000000000    -0.0310498551760744    0.0638804239505008
    0.7424127196052068    0.0000000000000000    -0.0331437647857540    0.0648316851953265
    0.7531054204384133    0.0000000000000000    -0.0352288638317177    0.0657718369926342
    0.7636599206104056    0.0000000000000000    -0.0373028834267751    0.0667001896209963
    0.7740686342844612    0.0000000000000000    -0.0393636248231256    0.0676160581172974
    0.7843238437186382    0.0000000000000000    -0.0414090291833294    0.0685187465140462
    0.7944181567943688    0.0000000000000000    -0.0434367352107540    0.0694075857303198
    0.8043439190437075    0.0000000000000000    -0.0454446447294731    0.0702818849034361
    0.8140937261725699    0.0000000000000000    -0.0474305356096460    0.0711409743028767
    0.8236602340764045    0.0000000000000000    -0.0493921816385325    0.0719841893235288
    0.8330360279090123    0.0000000000000000    -0.0513274812975110    0.0728108597900954
    0.8422139548488931    0.0000000000000000    -0.0532340736583678    0.0736203369239549
    0.8511868338273475    0.0000000000000000    -0.0551099206598457    0.0744119711834816
    0.8599475678292211    0.0000000000000000    -0.0569527073908772    0.0751851188156590
    0.8684892817660227    0.0000000000000000    -0.0587603178534359    0.0759391564923128
    0.8768051132117984    0.0000000000000000    -0.0605304913160326    0.0766734611643260
    0.8848884228036389    0.0000000000000000    -0.0622611529713187    0.0773874303255147
    0.8927325880620179    0.0000000000000000    -0.0639500350339947    0.0780804618234002
    0.9003313251604822    0.0000000000000000    -0.0655951022160428    0.0787519844621221
    0.9076783686170227    0.0000000000000000    -0.0671941095514787    0.0794014274137111
    0.9147676108717668    0.0000000000000000    -0.0687450586758524    0.0800282352528237
    0.9215931932399818    0.0000000000000000    -0.0702458421152583    0.0806318736404029
    0.9281494890286912    0.0000000000000000    -0.0716944362642843    0.0812118291071421
    0.9344308746293839    0.0000000000000000    -0.0730887822619311    0.0817675883803113
    0.9404321260066836    0.0000000000000000    -0.0744270413115726    0.0822986746245690
    0.9461482178353304    0.0000000000000000    -0.0757071550093689    0.0828046270055958
    0.9515742723630116    0.0000000000000000    -0.0769274298447858    0.0832850002802987
    0.9567056053526439    0.0000000000000000    -0.0780860120779042    0.0837393652067051
    0.9615379428547337    0.0000000000000000    -0.0791811455664039    0.0841673291917463
    0.9660671161200420    0.0000000000000000    -0.0802112394967655    0.0845685102938437
    0.9702892525782454    0.0000000000000000    -0.0811747371479705    0.0849425529320482
    0.9742007737883943    0.0000000000000000    -0.0820701393179049    0.0852891278953555
    0.9777984502306289    0.0000000000000000    -0.0828960619377447    0.0856079375529939
    0.9810797488067973    0.0000000000000000    -0.0836513674413617    0.0858987470680281
    0.9840448919997116    0.0000000000000000    -0.0843355644983800    0.0861615664076897
    0.9867055921507515    0.0000000000000000    -0.0849508738680921    0.0863974250401020
    0.9891068099024467    0.0000000000000000    -0.0855072501921481    0.0866103010446652
    0.9913436272657251    0.0000000000000000    -0.0860264812948684    0.0868086190959837
    0.9934795646314425    0.0000000000000000    -0.0865231749767238    0.0869980082898105
    0.9952826683492089    0.0000000000000000    -0.0869431181949289    0.0871578972432542
    0.9961946980917455    0.0000000000000000    -0.0871557427476585    0.0872387747306723
    0.9963742681313867    0.0000000000000000    -0.0871684791702176    0.0872515442952796
    0.9953786186993895    0.0000000000000000    -0.0877364333925235    0.0871666430232817
    0.9935703136646596    0.0000000000000000    -0.0882426070837702    0.0869959756550889
    0.9914063234955954    0.0000000000000000    -0.0886849987150872    0.0867862094244472
    0.9891236195324639    0.0000000000000000    -0.0890618237349228    0.0865598367475056
    0.9866698503470138    0.0000000000000000    -0.0894076033347880    0.0863127128549100
    0.9839517659723589    0.0000000000000000    -0.0897447787999980    0.0860351001637143
    0.9809224964144352    0.0000000000000000    -0.0900795908299344    0.0857218926922300
    0.9775696410552197    0.0000000000000000    -0.0904122704194081    0.0853714488129828
    0.9738930830789184    0.0000000000000000    -0.0907422830001428    0.0849834164456999
    0.9698955204355989    0.0000000000000000    -0.0910691476054215    0.0845578277051836
    0.9655815821882689    0.0000000000000000    -0.0913935883816764    0.0840947538783538
    0.9609541942775960    0.0000000000000000    -0.0917160476158189    0.0835942231789365
    0.9560174463259099    0.0000000000000000    -0.0920361387349148    0.0830567526129875
    0.9507758149557100    0.0000000000000000    -0.0923539319695637    0.0824829857059168
    0.9452338995178067    0.0000000000000000    -0.0926695644720402    0.0818737864275757
    0.9393964889042982    0.0000000000000000    -0.0929831969477220    0.0812303014233794
    0.9332684878727684    0.0000000000000000    -0.0932951296568533    0.0805539546857695
    0.9268553473480486    0.0000000000000000    -0.0936056866501222    0.0798464919874140
    0.9201623861104529    0.0000000000000000    -0.0939153926097783    0.0791098945398376
    0.9131952800318839    0.0000000000000000    -0.0942248288670960    0.0783463646211684
    0.9059599962583275    0.0000000000000000    -0.0945346557331786    0.0775582811926294
    0.8984624355518280    0.0000000000000000    -0.0948455173782955    0.0767480435386324
    0.8907089703112605    0.0000000000000000    -0.0951580229397852    0.0759180336920915
    0.8827059159508069    0.0000000000000000    -0.0954725216453084    0.0750704500487433
    0.8744599477562067    0.0000000000000000    -0.0957890831783364    0.0742072004549805
    0.8659776929272061    0.0000000000000000    -0.0961073196823688    0.0733297482138245
    0.8572661435891917    0.0000000000000000    -0.0964264071092733    0.0724391021844514
    0.8483323096254325    0.0000000000000000    -0.0967449744575582    0.0715357168568900
    0.8391833891105583    0.0000000000000000    -0.0970613188437930    0.0706197057582309
    0.8298267068993599    0.0000000000000000    -0.0973735912056178    0.0696910380336022
    0.8202696364887051    0.0000000000000000    -0.0976802899402915    0.0687499447923054
    0.8105197239437321    0.0000000000000000    -0.0979806532206870    0.0677974489636774
    0.8005844610846085    0.0000000000000000    -0.0982746208412105    0.0668352125196590
    0.7904714064421612    0.0000000000000000    -0.0985699928604125    0.0658727168544665
    0.7801880414979739    0.0000000000000000    -0.0988678128015905    0.0649126971194914
    0.7697423679721133    0.0000000000000000    -0.0991635966661971    0.0639523160614713
    0.7591419867615520    0.0000000000000000    -0.0994564724620416    0.0629923592850235
    0.7483947042427302    0.0000000000000000    -0.0997450635987519    0.0620330738175692
    0.7375084507097526    0.0000000000000000    -0.1000280596407122    0.0610747385913244
    0.7264910423808459    0.0000000000000000    -0.1003041339302730    0.0601176230940885
    0.7153503481361720    0.0000000000000000    -0.1005721201931629    0.0591621049187177
    0.7040942983487419    0.0000000000000000    -0.1008308742114987    0.0582086164168492
    0.6927307057285497    0.0000000000000000    -0.1010792630322004    0.0572575449541725
    0.6812673812508255    0.0000000000000000    -0.1013161234847424    0.0563092697934902
    0.6697122593379147    0.0000000000000000    -0.1015402032128058    0.0553640361663546
    0.6580730495522504    0.0000000000000000    -0.1017499978524936    0.0544218665672107
    0.6463576397441210    0.0000000000000000    -0.1019438957155014    0.0534826396190924
    0.6345736859300386    0.0000000000000000    -0.1021200715664731    0.0525460246840135
    0.6227290280514205    0.0000000000000000    -0.1022765838162265    0.0516115233370789
    0.6108312760097041    0.0000000000000000    -0.1024113390539003    0.0506785893037466
    0.5988880131449946    0.0000000000000000    -0.1025226473737096    0.0497469435916227
    0.5869066464842100    0.0000000000000000    -0.1026089248588126    0.0488164788439471
    0.5748948904152926    0.0000000000000000    -0.1026685679525040    0.0478870671348567
    0.5628600504355371    0.0000000000000000    -0.1026998418541168    0.0469583793722491
    0.5508093771004872    0.0000000000000000    -0.1027009454731687    0.0460301201870984
    0.5387502922000897    0.0000000000000000    -0.1026701247579999    0.0451021344080564
    0.5266899199856991    0.0000000000000000    -0.1026058903414838    0.0441741935934454
    0.5146355028425589    0.0000000000000000    -0.1025068903253294    0.0432461506725938
    0.5025939263923724    0.0000000000000000    -0.1023718453137883    0.0423179232118115
    0.4905721046041919    0.0000000000000000    -0.1021995512203634    0.0413895405897455
    0.4785765619693425    0.0000000000000000    -0.1019886431872878    0.0404611866062527
    0.4666142351073697    0.0000000000000000    -0.1017377287742773    0.0395331986755063
    0.4546919477122464    0.0000000000000000    -0.1014457615545167    0.0386058279363353
    0.4428161590200094    0.0000000000000000    -0.1011118517706207    0.0376793524008112
    0.4309933935626657    0.0000000000000000    -0.1007351367631918    0.0367541048899939
    0.4192299870522421    0.0000000000000000    -0.1003148876715572    0.0358304852519795
    0.4075321861763996    0.0000000000000000    -0.0998504572611138    0.0349089436754670
    0.3959061441019145    0.0000000000000000    -0.0993412598812636    0.0339899762354201
    0.3843578923784451    0.0000000000000000    -0.0987867659563715    0.0330741116628594
    0.3728933922759370    0.0000000000000000    -0.0981865770984934    0.0321619134274325
    0.3615184620594974    0.0000000000000000    -0.0975403106637242    0.0312539507578828
    0.3502388560405611    0.0000000000000000    -0.0968476878182245    0.0303508137670363
    0.3390601828292427    0.0000000000000000    -0.0961084800580256    0.0294531030147525
    0.3279880195230440    0.0000000000000000    -0.0953225407476691    0.0285614392101583
    0.3170277582504379    0.0000000000000000    -0.0944897823680328    0.0276764272922135