VARIABLES = "X" "Y" "Z" "DispMag"
ZONE T="5deg_def"    I=257    J=129    K=1    F=POINT
    0.8660254037844766    0.0000000000000000    -0.5000000000000213    0.5176380902050522
    0.8651563576982539    0.0000000000000000    -0.4996510506856175    0.5171581973102475
    0.8634384714778776    0.0000000000000000    -0.4989608312472348    0.5162094837046731
    0.8614039210039550    0.0000000000000000    -0.4981425776668012    0.5150857281172576
    0.8592738079184699    0.0000000000000000    -0.4972849226159219    0.5139089924562924
    0.8569877195677691    0.0000000000000000    -0.4963634002204102    0.5126458760432568
    0.8544552735380364    0.0000000000000000    -0.4953413191531695    0.5112463904116056
    0.8516339322846420    0.0000000000000000    -0.4942010422888821    0.5096869313115105
    0.8485128189372517    0.0000000000000000    -0.4929376862692791    0.5079613903352139
    0.8450920508763033    0.0000000000000000    -0.4915506901586326    0.5060697082925373
    0.8413743343876092    0.0000000000000000    -0.4900406117407420    0.5040132786709575
    0.8373631251065206    0.0000000000000000    -0.4884081414000363    0.5017938674297979
    0.8330622099196034    0.0000000000000000    -0.4866541110321592    0.4994134279786980
    0.8284756417262145    0.0000000000000000    -0.4847794878327357    0.4968740702537134
    0.8236077683071983    0.0000000000000000    -0.4827853242918962    0.4941780604193723
    0.8184630849212908    0.0000000000000000    -0.4806726558821097    0.4913277280320419
    0.8130464816871381    0.0000000000000000    -0.4784426686206800    0.4883256201276365
    0.8073629574816152    0.0000000000000000    -0.4760967177800666    0.4851743783235337
    0.8014177864111787    0.0000000000000000    -0.4736360395470243    0.4818767372044982
    0.7952162963926241    0.0000000000000000    -0.4710621345361758    0.4784355261923178
    0.7887643005416010    0.0000000000000000    -0.4683764974364770    0.4748537905394509
    0.7820675393308534    0.0000000000000000    -0.4655807487585158    0.4711345773102394
    0.7751320365438517    0.0000000000000000    -0.4626764951415972    0.4672810568583173
    0.7679639563165495    0.0000000000000000    -0.4596655769642730    0.4632965245943111
    0.7605696837666471    0.0000000000000000    -0.4565498094819915    0.4591843681205477
    0.7529555532541679    0.0000000000000000    -0.4533310958642147    0.4549479763735110
    0.7451283024521445    0.0000000000000000    -0.4500113559778711    0.4505909220198810
    0.7370945307324064    0.0000000000000000    -0.4465927492350588    0.4461167806600705
    0.7288611831759795    0.0000000000000000    -0.4430773130989039    0.4415292486435379
    0.7204350837915570    0.0000000000000000    -0.4394672947352163    0.4368320250200383
    0.7118233878616707    0.0000000000000000    -0.4357648443641722    0.4320289292261955
    0.7030331551397353    0.0000000000000000    -0.4319723968776188    0.4271238151123594
    0.6940715692443860    0.0000000000000000    -0.4280921726253375    0.4221205330904886
    0.6849459355206022    0.0000000000000000    -0.4241266579583716    0.4170230589606898
    0.6756635384279832    0.0000000000000000    -0.4200782561932570    0.4118353364467162
    0.6662317140452672    0.0000000000000000    -0.4159494004486958    0.4065613395797805
    0.6566579509105281    0.0000000000000000    -0.4117427366125845    0.4012051671077964
    0.6469496260814651    0.0000000000000000    -0.4074606268274188    0.3957707903031291
    0.6371142825086338    0.0000000000000000    -0.4031057419438468    0.3902623371994718
    0.6271593738759123    0.0000000000000000    -0.3986806690117533    0.3846838729040943
    0.6170924557766568    0.0000000000000000    -0.3941879377757366    0.3790394901238275
    0.6069210074364264    0.0000000000000000    -0.3896302102545874    0.3733332837740564
    0.5966524899889976    0.0000000000000000    -0.3850100605932312    0.3675693152688724
    0.5862945050589587    0.0000000000000000    -0.3803300580172895    0.3617517042083260
    0.5758544877032534    0.0000000000000000    -0.3755928218384276    0.3558845100966547
    0.5653399134219796    0.0000000000000000    -0.3708010205277645    0.3499718223258328
    0.5547582699602174    0.0000000000000000    -0.3659570629276949    0.3440176599034555
    0.5441169700240209    0.0000000000000000    -0.3610636070641959    0.3380260776463597
    0.5334234194017426    0.0000000000000000    -0.3561232037322348    0.3320010945501865
    0.5226848815291305    0.0000000000000000    -0.3511384118722702    0.3259466680138434
    0.5119087651285383    0.0000000000000000    -0.3461115387814716    0.3198667422204011
    0.5011022907939093    0.0000000000000000    -0.3410452176028649    0.3137652710623769
    0.4902726285709775    0.0000000000000000    -0.3359418114053447    0.3076461051292952
    0.4794269056640132    0.0000000000000000    -0.3308037574604547    0.3015130942560177
    0.4685722679045341    0.0000000000000000    -0.3256334607778264    0.2953700825019125
    0.4577156993500466    0.0000000000000000    -0.3204331297289330    0.2892207820880119
    0.4468640946513460    0.0000000000000000    -0.3152051275428533    0.2830689077600745
    0.4360244410575262    0.0000000000000000    -0.3099517762745378    0.2769181958983689
    0.4252033751228907    0.0000000000000000    -0.3046752901413115    0.2707721965215574
    0.4144077255138541    0.0000000000000000    -0.2993779082436170    0.2646345418198331
    0.4036440255468392    0.0000000000000000    -0.2940617851941668    0.2585087073185821
    0.3929188862354068    0.0000000000000000    -0.2887290602412734    0.2523981890717346
    0.3822386634195994    0.0000000000000000    -0.2833818973729887    0.2463063762580304
    0.3716097653616544    0.0000000000000000    -0.2780223101758353    0.2402366254785895
    0.3610384055479585    0.0000000000000000    -0.2726524707833402    0.2341922524835785
    0.3505307910841111    0.0000000000000000    -0.2672743239621642    0.2281764905633334
    0.3400928954532958    0.0000000000000000    -0.2618899807080037    0.2221925186041966
    0.3297306889470236    0.0000000000000000    -0.2565014383331850    0.2162434686828099
    0.3194499846020449    0.0000000000000000    -0.2511107281050808    0.2103324084815093
    0.3092565145694834    0.0000000000000000    -0.2457197829719444    0.2044623301868642
    0.2991558643858241    0.0000000000000000    -0.2403306706158475    0.1986361980165116
    0.2891535150211126    0.0000000000000000    -0.2349452822046096    0.1928568650728627
    0.2792548266416617    0.0000000000000000    -0.2295656585407411    0.1871271717938374
    0.2694650620307044    0.0000000000000000    -0.2241937110757295    0.1814498644508143
    0.2597893634342938    0.0000000000000000    -0.2188314408279801    0.1758276570459876
    0.2502327440507344    0.0000000000000000    -0.2134807743100673    0.1702631736861619
    0.2408000334788056    0.0000000000000000    -0.2081437772242971    0.1647589984745642
    0.2314960323176080    0.0000000000000000    -0.2028223866882985    0.1593176465995732
    0.2223252910459905    0.0000000000000000    -0.1975186750167559    0.1539415664786053
    0.2132923495025238    0.0000000000000000    -0.1922346137456455    0.1486331531457296
    0.2044015346580466    0.0000000000000000    -0.1869722450840037    0.1433947278979566
    0.1956571160096701    0.0000000000000000    -0.1817336511849543    0.1382285882614505
    0.1870631230499242    0.0000000000000000    -0.1765208530639732    0.1331369027863544
    0.1786235738280623    0.0000000000000000    -0.1713359511615576    0.1281218472236641
    0.1703423576129950    0.0000000000000000    -0.1661809113444797    0.1231854829569571
    0.1622231446838782    0.0000000000000000    -0.1610578999669503    0.1183298435634928
    0.1542694443397323    0.0000000000000000    -0.1559691237906335    0.1135569013524382
    0.1464846736831618    0.0000000000000000    -0.1509167406492562    0.1088685599952013
    0.1388721389942731    0.0000000000000000    -0.1459028917107314    0.1042666582573169
    0.1314349873020718    0.0000000000000000    -0.1409297853580744    0.0997529836599334
    0.1241764390809550    0.0000000000000000    -0.1359993239490000    0.0953292124137829
    0.1170992245377817    0.0000000000000000    -0.1311139311834370    0.0909970239490046
    0.1102061098050200    0.0000000000000000    -0.1262758493278434    0.0867580229024407
    0.1034997113442699    0.0000000000000000    -0.1214873116649260    0.0826137372162839
    0.0969825665931268    0.0000000000000000    -0.1167504499322618    0.0785656042554008
    0.0906572618196150    0.0000000000000000    -0.1120672218843808    0.0746149789918098
    0.0845258262359181    0.0000000000000000    -0.1074401626933197    0.0707632358118503
    0.0785903765374912    0.0000000000000000    -0.1028714622922644    0.0670116147172333
    0.0728529565798084    0.0000000000000000    -0.0983632728624038    0.0633612847072891
    0.0673157735350145    0.0000000000000000    -0.0939173892079150    0.0598132758844842
    0.0619802725663590    0.0000000000000000    -0.0895363448243520    0.0563686519103751
    0.0568481057253507    0.0000000000000000    -0.0852222850655471    0.0530283401277665
    0.0519209778855015    0.0000000000000000    -0.0809771147820904    0.0497931280231836
    0.0472005220798053    0.0000000000000000    -0.0768026844425069    0.0466636932198617
    0.0426877675242067    0.0000000000000000    -0.0727013390139888    0.0436406984889044
    0.0383839670861050    0.0000000000000000    -0.0686750062862416    0.0407246168078891
    0.0342907032848103    0.0000000000000000    -0.0647251548331030    0.0379157021736067
    0.0304087944397224    0.0000000000000000    -0.0608538616062395    0.0352141825370365
    0.0267390874786599    0.0000000000000000    -0.0570630049946530    0.0326200941963685
    0.0232827506661977    0.0000000000000000    -0.0533540036723146    0.0301331897501949
    0.0200409058709851    0.0000000000000000    -0.0497282151133591    0.0277529975449815
    0.0170139484152401    0.0000000000000000    -0.0461874505440676    0.0254789178209752
    0.0142027023901363    0.0000000000000000    -0.0427330095091127    0.0233099671534195
    0.0116087594650054    0.0000000000000000    -0.0393654990935444    0.0212446505715623
    0.0092323561345892    0.0000000000000000    -0.0360864431020103    0.0192813606880234
    0.0070743646430600    0.0000000000000000    -0.0328967559272391    0.0174179116781682
    0.0051361603041116    0.0000000000000000    -0.0297969649079945    0.0156515070045086
    0.0034195719887790    0.0000000000000000    -0.0267873817676359    0.0139786946153661
    0.0019256179892793    0.0000000000000000    -0.0238688094972463    0.0123955471305941
    0.0006564598453948    0.0000000000000000    -0.0210415647669766    0.0108972148276564
    -0.0003851153552077    0.0000000000000000    -0.0183060113910747    0.0094779854749431
    -0.0011953429042393    0.0000000000000000    -0.0156627216562679    0.0081311980255528
    -0.0017695444384884    0.0000000000000000    -0.0131129233205973    0.0068492741813081
    -0.0021030960522168    0.0000000000000000    -0.0106590225246946    0.0056238888920644
    -0.0021904382614082    0.0000000000000000    -0.0083046054275009    0.0044457997948347
    -0.0020263364911557    0.0000000000000000    -0.0060545750847156    0.0033049446568386
    -0.0016067961461061    0.0000000000000000    -0.0039152242798898    0.0021907025589310
    -0.0009308361084664    0.0000000000000000    -0.0018952061908406    0.0010929720036936
    -0.0000000000000708    0.0000000000000000    -0.0000000000000293    0.0000000000000711
    0.0011758833189148    0.0000000000000000    0.0017537273113275    0.0010929718437435
    0.0025872859365422    0.0000000000000000    0.0033491376977377    0.0021907023643728
    0.0042302515332509    0.0000000000000000    0.0047821409156770    0.0033049438760904
    0.0060967806804016    0.0000000000000000    0.0060492765049505    0.0044457994879046
    0.0081794396397612    0.0000000000000000    0.0071508396171272    0.0056238880788078
    0.0104713524318570    0.0000000000000000    0.0080889310578023    0.0068492738268542
    0.0129666452237842    0.0000000000000000    0.0088665538671640    0.0081311975559587
    0.0156609132290484    0.0000000000000000    0.0094865253765324    0.0094779854749466
    0.0185507594215721    0.0000000000000000    0.0099522694020103    0.0108972142620305
    0.0216338035708645    0.0000000000000000    0.0102667711174939    0.0123955468566606
    0.0249083384242752    0.0000000000000000    0.0104322572158972    0.0139786947986573
    0.0283730080362687    0.0000000000000000    0.0104504396971619    0.0156515071285608
    0.0320266089061861    0.0000000000000000    0.0103218026246026    0.0174179124612532
    0.0358679550249334    0.0000000000000000    0.0100477749167416    0.0192813620978675
    0.0398959012983937    0.0000000000000000    0.0096292714881149    0.0212446505375505
    0.0441092221456784    0.0000000000000000    0.0090666170861890    0.0233099681120795
    0.0485064815774834    0.0000000000000000    0.0083592169519715    0.0254789190547628
    0.0530863496440901    0.0000000000000000    0.0075081873614407    0.0277529980735572
    0.0578473002686266    0.0000000000000000    0.0065135598304869    0.0301331916334907
    0.0627875580426931    0.0000000000000000    0.0053747850080849    0.0326200959240342
    0.0679053915136620    0.0000000000000000    0.0040921570872276    0.0352141851795532
    0.0731989818544179    0.0000000000000000    0.0026659604844533    0.0379157031979076
    0.0786662845901702    0.0000000000000000    0.0010960291786404    0.0407246174444737
    0.0843050856476494    0.0000000000000000    -0.0006180146483467    0.0436406960867385
    0.0901133378440733    0.0000000000000000    -0.0024754923416363    0.0466636934999991
    0.0960887311944703    0.0000000000000000    -0.0044763219947139    0.0497931297940326
    0.1022287204232697    0.0000000000000000    -0.0066207547300241    0.0530283418362201
    0.1085308929136772    0.0000000000000000    -0.0089083052590411    0.0563686552076393
    0.1149927335412286    0.0000000000000000    -0.0113384721264822    0.0598132766801914
    0.1216115769760080    0.0000000000000000    -0.0139108650291391    0.0633612870117051
    0.1283844879383054    0.0000000000000000    -0.0166255314282617    0.0670116147172769
    0.1353088271223725    0.0000000000000000    -0.0194814249971893    0.0707632372444801
    0.1423816938557678    0.0000000000000000    -0.0224778776049170    0.0746149796837952
    0.1496001425665270    0.0000000000000000    -0.0256141349754424    0.0785656055923702
    0.1569609556741085    0.0000000000000000    -0.0288897202498655    0.0826137378622384
    0.1644611501674973    0.0000000000000000    -0.0323033628533266    0.0867580235266299
    0.1720976093263289    0.0000000000000000    -0.0358539343953029    0.0909970245522774
    0.1798670889778151    0.0000000000000000    -0.0395402888210903    0.0953292124137745
    0.1877662660583895    0.0000000000000000    -0.0433611484969037    0.0997529830962092
    0.1957916783415357    0.0000000000000000    -0.0473153576177970    0.1042666577123628
    0.2039400643748337    0.0000000000000000    -0.0514010848024107    0.1088685589416288
    0.2122079437158248    0.0000000000000000    -0.0556166991567775    0.1135569008431345
    0.2205917996055576    0.0000000000000000    -0.0599604240732142    0.1183298420863462
    0.2290880659295596    0.0000000000000000    -0.0644303598135760    0.1231854820048992
    0.2376930676136055    0.0000000000000000    -0.0690245867477017    0.1281218458430380
    0.2464030952628633    0.0000000000000000    -0.0737410062715114    0.1331369005618726
    0.2552145092029576    0.0000000000000000    -0.0785772202079081    0.1382285865411200
    0.2641234720612289    0.0000000000000000    -0.0835308151753953    0.1433947258192601
    0.2731262281536289    0.0000000000000000    -0.0885992959077644    0.1486331519402837
    0.2822188246334604    0.0000000000000000    -0.0937800317984471    0.1539415641484028
    0.2913973536244327    0.0000000000000000    -0.0990702547443654    0.1593176462242718
    0.3006578005541058    0.0000000000000000    -0.1044670834222235    0.1647589955733484
    0.3099961439347680    0.0000000000000000    -0.1099675292777444    0.1702631733358113
    0.3194082518569842    0.0000000000000000    -0.1155684969888426    0.1758276539998707
    0.3288899801756315    0.0000000000000000    -0.1212667336130551    0.1814498644508039
    0.3384370868271844    0.0000000000000000    -0.1270589769927160    0.1871271686368667
    0.3480453403990111    0.0000000000000000    -0.1329416484995321    0.1928568650728691
    0.3577103796282017    0.0000000000000000    -0.1389112752031618    0.1986361950741001
    0.3674278296882960    0.0000000000000000    -0.1449641096432828    0.2044623299028093
    0.3771932415137655    0.0000000000000000    -0.1510964733395958    0.2103324054670590
    0.3870021043146040    0.0000000000000000    -0.1573044370949059    0.2162434684185015
    0.3968498035273171    0.0000000000000000    -0.1635841322432956    0.2221925157994611
    0.4067317480100314    0.0000000000000000    -0.1699314111327919    0.2281764903174210
    0.4166431483877204    0.0000000000000000    -0.1763422310427725    0.2341922498765956
    0.4265792661117019    0.0000000000000000    -0.1828123420096297    0.2402366254786525
    0.4365352351810259    0.0000000000000000    -0.1893374764054521    0.2463063740575435
    0.4465061422351937    0.0000000000000000    -0.1959132102120318    0.2523981888597597
    0.4564869685447093    0.0000000000000000    -0.2025351231005104    0.2585087050740891
    0.4664727291772408    0.0000000000000000    -0.2091986766025293    0.2646345410342745
    0.4764582119655358    0.0000000000000000    -0.2158993085965903    0.2707721948209436
    0.4864383252801190    0.0000000000000000    -0.2226323673942545    0.2769181951714528
    0.4964076784173130    0.0000000000000000    -0.2293931232717483    0.2830689061876179
    0.5063610671957974    0.0000000000000000    -0.2361768810670206    0.2892207809128561
    0.5162929721322769    0.0000000000000000    -0.2429787764824916    0.2953700815342660
    0.5261978955589086    0.0000000000000000    -0.2497940266422561    0.3015130930172726
    0.5360704497052211    0.0000000000000000    -0.2566176583247320    0.3076461045349335
    0.5459048992972839    0.0000000000000000    -0.2634447041540966    0.3137652390103468
    0.5556957658293697    0.0000000000000000    -0.2702702288565674    0.3198667420837566
    0.5654372145145317    0.0000000000000000    -0.2770891989994588    0.3259466672282693
    0.5751234491474690    0.0000000000000000    -0.2838966335355479    0.3320010944248009
    0.5847487280729240    0.0000000000000000    -0.2906873377222254    0.3380260768064844
    0.5943072388568567    0.0000000000000000    -0.2974562394123800    0.3440176593295711
    0.6037930509239686    0.0000000000000000    -0.3041982326637793    0.3499718217775180
    0.6132001578668564    0.0000000000000000    -0.3109082236723247    0.3558845094681836
    0.6225227408699823    0.0000000000000000    -0.3175809129240506    0.3617517040083745
    0.6317547288675200    0.0000000000000000    -0.3242111993960570    0.3675693147922574
    0.6408901620178256    0.0000000000000000    -0.3307939086294027    0.3733332836832346
    0.6499229865544294    0.0000000000000000    -0.3373237904294940    0.3790394896914528
    0.6588472687119804    0.0000000000000000    -0.3437956251707703    0.3846838726574093
    0.6676569458073516    0.0000000000000000    -0.3502042973123096    0.3902623368479086
    0.6763460529452630    0.0000000000000000    -0.3565445219379696    0.3957707897470449
    0.6849086442542500    0.0000000000000000    -0.3628111003924630    0.4012051670726155
    0.6933385951870150    0.0000000000000000    -0.3689989050766335    0.4065613392470269
    0.7016302041355402    0.0000000000000000    -0.3751026718846048    0.4118353362263721
    0.7097774205239489    0.0000000000000000    -0.3811172643053701    0.4170230587228963
    0.7177744728950017    0.0000000000000000    -0.3870375392154131    0.4221205328382809
    0.7256156460681780    0.0000000000000000    -0.3928583752280232    0.4271238150859581
    0.7332951080506689    0.0000000000000000    -0.3985747340711648    0.4320289289284972
    0.7408073739555903    0.0000000000000000    -0.4041814531042434    0.4368320247873461
    0.7481467968468110    0.0000000000000000    -0.4096736503656614    0.4415292485563478
    0.7553079229678588    0.0000000000000000    -0.4150462285053003    0.4461167804766785
    0.7622854156319363    0.0000000000000000    -0.4202943642397088    0.4505909219818636
    0.7690740107954355    0.0000000000000000    -0.4254131084637685    0.4549479761612044
    0.7756685680026578    0.0000000000000000    -0.4303977748475276    0.4591843679974800
    0.7820640436576696    0.0000000000000000    -0.4352435092986155    0.4632965245714500
    0.7882556028287127    0.0000000000000000    -0.4399458115598982    0.4672810566480676
    0.7942385158243610    0.0000000000000000    -0.4444999990940879    0.4711345771749093
    0.8000080918609456    0.0000000000000000    -0.4489016796015264    0.4748537904922019
    0.8055599118242469    0.0000000000000000    -0.4531464670751716    0.4784355260573929
    0.8108897314103274    0.0000000000000000    -0.4572301495622924    0.4818767371602473
    0.8159933240117994    0.0000000000000000    -0.4611484844617060    0.4851743782569793
    0.8208667321537746    0.0000000000000000    -0.4648975974848213    0.4883256200076772
    0.8255062712635493    0.0000000000000000    -0.4684734992899884    0.4913277280159593
    0.8299082363051582    0.0000000000000000    -0.4718725936082535    0.4941780603970468
    0.8340691653421572    0.0000000000000000    -0.4750912207365232    0.4968740702101648
    0.8379859270386589    0.0000000000000000    -0.4781259828202806    0.4994134279736910
    0.8416554155314202    0.0000000000000000    -0.4809736763032894    0.5017938674074595
    0.8450747789787840    0.0000000000000000    -0.4836312536981495    0.5040132786439606
    0.8482414078021634    0.0000000000000000    -0.4860958439518654    0.5060697082839873
    0.8511529599949768    0.0000000000000000    -0.4883648278180530    0.5079613903122066
    0.8538076205473715    0.0000000000000000    -0.4904361037780767    0.5096869313051267
    0.8562057987417120    0.0000000000000000    -0.4923093205607501    0.5112463904043348
    0.8583571710313720    0.0000000000000000    -0.4939914407067896    0.5126458760391833
    0.8602982785830591    0.0000000000000000    -0.4955104873740800    0.5139089924549566
    0.8621060870315489    0.0000000000000000    -0.4969263904316428    0.5150857281169772
    0.8638319918781008    0.0000000000000000    -0.4982792339199733    0.5162094837050722
    0.8652886831457351    0.0000000000000000    -0.4994218562876469    0.5171581973103557
    0.8660254037844766    0.0000000000000000    -0.5000000000000213    0.5176380902050522
    0.8661814800007335    0.0000000000000000    -0.5000897731570344    0.5177310491095402
    0.8650377336691975    0.0000000000000000    -0.5001860152763413    0.5172432427877467
    0.8631770330178483    0.0000000000000000    -0.4998951376680410    0.5163333831067126
    0.8610173322476271    0.0000000000000000    -0.4994026217396091    0.5152371858392506
    0.8587750731452104    0.0000000000000000    -0.4988053787887168    0.5140767805020647
    0.8563882627508690    0.0000000000000000    -0.4981124675989612    0.5128267649017838
    0.8537620624882720    0.0000000000000000    -0.4973063302731191    0.5114400565307710
    0.8508508394162106    0.0000000000000000    -0.4963737243197528    0.5098927816636930
    0.8476429747948373    0.0000000000000000    -0.4953100912430770    0.5081785746587553
    0.8441384087300037    0.0000000000000000    -0.4941151755099007    0.5062973727308983
    0.8403396725323944    0.0000000000000000    -0.4927898380828709    0.5042505678131188
    0.8362504718415380    0.0000000000000000    -0.4913369571961361    0.5020405968860756
    0.8318731352196664    0.0000000000000000    -0.4897583394739762    0.4996690058529736
    0.8272115774746283    0.0000000000000000    -0.4880551935802409    0.4971379058545076
    0.8222699104000242    0.0000000000000000    -0.4862292213041073    0.4944496248470528
    0.8170524257199645    0.0000000000000000    -0.4842820521396902    0.4916065559166008
    0.8115636988930817    0.0000000000000000    -0.4822151833931763    0.4886111895570065
    0.8058084765739295    0.0000000000000000    -0.4800300559173394    0.4854660828930036
    0.7997921179900800    0.0000000000000000    -0.4777281241904525    0.4821740751197163
    0.7935198950055167    0.0000000000000000    -0.4753107575146984    0.4787379493490295
    0.7869974702411469    0.0000000000000000    -0.4727793651565868    0.4751606777348142
    0.7802308114685843    0.0000000000000000    -0.4701354258993896    0.4714453920010870
    0.7732258516906256    0.0000000000000000    -0.4673803608014744    0.4675951968024362
    0.7659889442051622    0.0000000000000000    -0.4645158182043367    0.4636134479961507
    0.7585264269736740    0.0000000000000000    -0.4615433551940527    0.4595034746954477
    0.7508449408257434    0.0000000000000000    -0.4584647205206985    0.4552687942440882
    0.7429510802032553    0.0000000000000000    -0.4552816246863820    0.4509128955518559
    0.7348517379666362    0.0000000000000000    -0.4519959780265665    0.4464394574097394
    0.7265538027209288    0.0000000000000000    -0.4486096978968490    0.4418521586163475
    0.7180643112930341    0.0000000000000000    -0.4451248036028836    0.4371547745712930
    0.7093904041575172    0.0000000000000000    -0.4415433727422026    0.4323511416962185
    0.7005392290732004    0.0000000000000000    -0.4378675901480058    0.4274451311013412
    0.6915181150191643    0.0000000000000000    -0.4340996834983493    0.4224407046939825
    0.6823343081682935    0.0000000000000000    -0.4302419048254684    0.4173417961405423
    0.6729952970408704    0.0000000000000000    -0.4262966812300633    0.4121524912335774
    0.6635083640753408    0.0000000000000000    -0.4222663195765364    0.4068767534886894
    0.6538811249244247    0.0000000000000000    -0.4181533831335251    0.4015187614018997
    0.6441209445900711    0.0000000000000000    -0.4139602715012956    0.3960825357744955
    0.6342353248164443    0.0000000000000000    -0.4096895047934694    0.3905721913623911
    0.6242318542460907    0.0000000000000000    -0.4053436893043810    0.3849919011796719
    0.6141180220904232    0.0000000000000000    -0.4009253633431946    0.3793457726952139
    0.6039013426143072    0.0000000000000000    -0.3964371401035613    0.3736379437436355
    0.5935893983162543    0.0000000000000000    -0.3918816320671930    0.3678725785403508
    0.5831896420679357    0.0000000000000000    -0.3872614354233690    0.3620537737904703
    0.5727095361773991    0.0000000000000000    -0.3825791294282759    0.3561856259680247
    0.5621566250741523    0.0000000000000000    -0.3778373874125548    0.3502722875858215
    0.5515382630997578    0.0000000000000000    -0.3730387323392605    0.3443177786645051
    0.5408619399252643    0.0000000000000000    -0.3681858097346833    0.3383262109913016
    0.5301349407623661    0.0000000000000000    -0.3632811406688035    0.3323015679330491
    0.5193646818208890    0.0000000000000000    -0.3583273746484394    0.3262479172641811
    0.5085584253706941    0.0000000000000000    -0.3533269485820014    0.3201691926322837
    0.4977233649456991    0.0000000000000000    -0.3482824179294148    0.3140693285278969
    0.4868665733391992    0.0000000000000000    -0.3431961875243665    0.3079521569347500
    0.4759953822041609    0.0000000000000000    -0.3380708082511817    0.3018216555765490
    0.4651167288754152    0.0000000000000000    -0.3329086776890797    0.2956815789014244
    0.4542375487495462    0.0000000000000000    -0.3277120759458185    0.2895356398919527
    0.4433649750676238    0.0000000000000000    -0.3224832974710452    0.2833876385593073
    0.4325057233493794    0.0000000000000000    -0.3172247618268607    0.2772412111579496
    0.4216665868627842    0.0000000000000000    -0.3119389913782840    0.2711000472246479
    0.4108540467395869    0.0000000000000000    -0.3066283331232711    0.2649676438440580
    0.4000746282130194    0.0000000000000000    -0.3012951167702695    0.2588475052707424
    0.3893346708598245    0.0000000000000000    -0.2959412179189425    0.2527429250944314
    0.3786409615583750    0.0000000000000000    -0.2905685703423142    0.2466573975295185
    0.3679999820574266    0.0000000000000000    -0.2851793967264094    0.2405943434729064
    0.3574178407540956    0.0000000000000000    -0.2797758514306938    0.2345569969994382
    0.3469007145082230    0.0000000000000000    -0.2743600886679207    0.2285486065293034
    0.3364545911348956    0.0000000000000000    -0.2689342328193848    0.2225723251416859
    0.3260853681646836    0.0000000000000000    -0.2635003856640790    0.2166312476195349
    0.3157988582471773    0.0000000000000000    -0.2580606172065050    0.2107284129557331
    0.3056007606837455    0.0000000000000000    -0.2526169554020576    0.2048667869423587
    0.2954966755707460    0.0000000000000000    -0.2471714814784533    0.1990492995959813
    0.2854920714924987    0.0000000000000000    -0.2417262065961623    0.1932787903711921
    0.2755923247465403    0.0000000000000000    -0.2362831832598129    0.1875580623181202
    0.2658026654694794    0.0000000000000000    -0.2308444197054182    0.1818898297642641
    0.2561282683532226    0.0000000000000000    -0.2254119612837258    0.1762767834244880