VARIABLES = "X" "Y" "Z"
ZONE I=257    J=129    K=1    F=POINT
    1.0000000000000000    0.0000000000000000    0.0000000000000000
    0.9990729093551636    0.0000000000000000   -0.0001323240721831
    0.9972400665283203    0.0000000000000000   -0.0003935196145903
    0.9950689673423767    0.0000000000000000   -0.0007021664641798
    0.9927954077720642    0.0000000000000000   -0.0010244719451293
    0.9903548359870911    0.0000000000000000   -0.0013694543158635
    0.9876506328582764    0.0000000000000000   -0.0017505291616544
    0.9846371412277222    0.0000000000000000   -0.0021736910566688
    0.9813024997711182    0.0000000000000000   -0.0026401493232697
    0.9776465296745300    0.0000000000000000   -0.0031493594869971
    0.9736718535423279    0.0000000000000000   -0.0037004514597356
    0.9693818092346191    0.0000000000000000   -0.0042922953143716
    0.9647800922393799    0.0000000000000000   -0.0049237180501223
    0.9598706960678101    0.0000000000000000   -0.0055935308337212
    0.9546579122543335    0.0000000000000000   -0.0063004712574184
    0.9491461515426636    0.0000000000000000   -0.0070431884378195
    0.9433402419090271    0.0000000000000000   -0.0078202644363046
    0.9372451901435852    0.0000000000000000   -0.0086303735151887
    0.9308661818504333    0.0000000000000000   -0.0094719491899014
    0.9242085814476013    0.0000000000000000   -0.0103436270728707
    0.9172781705856323    0.0000000000000000   -0.0112437950447202
    0.9100807309150696    0.0000000000000000   -0.0121709862723947
    0.9026222825050354    0.0000000000000000   -0.0131235802546144
    0.8949090838432312    0.0000000000000000   -0.0141000887379050
    0.8869475722312927    0.0000000000000000   -0.0150988912209868
    0.8787441849708557    0.0000000000000000   -0.0161184687167406
    0.8703057169914246    0.0000000000000000   -0.0171571150422096
    0.8616389632225037    0.0000000000000000   -0.0182134006172419
    0.8527509570121765    0.0000000000000000   -0.0192856173962355
    0.8436487317085266    0.0000000000000000   -0.0203722994774580
    0.8343395590782166    0.0000000000000000   -0.0214717313647270
    0.8248307704925537    0.0000000000000000   -0.0225824918597937
    0.8151296973228455    0.0000000000000000   -0.0237029120326042
    0.8052439093589783    0.0000000000000000   -0.0248314924538136
    0.7951809167861938    0.0000000000000000   -0.0259666722267866
    0.7849482893943787    0.0000000000000000   -0.0271068904548883
    0.7745538353919983    0.0000000000000000   -0.0282506942749023
    0.7640051245689392    0.0000000000000000   -0.0293964408338070
    0.7533100247383118    0.0000000000000000   -0.0305426716804504
    0.7424762845039368    0.0000000000000000   -0.0316879004240036
    0.7315117120742798    0.0000000000000000   -0.0328305400907993
    0.7204241156578064    0.0000000000000000   -0.0339691564440727
    0.7092212438583374    0.0000000000000000   -0.0351022481918335
    0.6979109644889832    0.0000000000000000   -0.0362282395362854
    0.6865010261535645    0.0000000000000000   -0.0373456813395023
    0.6749992370605469    0.0000000000000000   -0.0384531468153000
    0.6634132862091064    0.0000000000000000   -0.0395489782094955
    0.6517509222030640    0.0000000000000000   -0.0406317710876465
    0.6400198340415955    0.0000000000000000   -0.0417000316083431
    0.6282275915145874    0.0000000000000000   -0.0427523441612720
    0.6163817644119263    0.0000000000000000   -0.0437870025634766
    0.6044899225234985    0.0000000000000000   -0.0448026768863201
    0.5925594568252563    0.0000000000000000   -0.0457978285849094
    0.5805977582931519    0.0000000000000000   -0.0467710047960281
    0.5686122179031372    0.0000000000000000   -0.0477207154035568
    0.5566099882125854    0.0000000000000000   -0.0486453808844090
    0.5445982217788696    0.0000000000000000   -0.0495436005294323
    0.5325841307640076    0.0000000000000000   -0.0504138916730881
    0.5205745697021484    0.0000000000000000   -0.0512548536062241
    0.5085765719413757    0.0000000000000000   -0.0520650111138821
    0.4965968728065491    0.0000000000000000   -0.0528429634869099
    0.4846422672271729    0.0000000000000000   -0.0535872578620911
    0.4727193415164948    0.0000000000000000   -0.0542965903878212
    0.4608346521854401    0.0000000000000000   -0.0549695007503033
    0.4489946663379669    0.0000000000000000   -0.0556047633290291
    0.4372057318687439    0.0000000000000000   -0.0562009587883949
    0.4254740774631500    0.0000000000000000   -0.0567569285631180
    0.4138058722019196    0.0000000000000000   -0.0572714172303677
    0.4022071659564972    0.0000000000000000   -0.0577432774007320
    0.3906838893890381    0.0000000000000000   -0.0581713169813156
    0.3792419135570526    0.0000000000000000   -0.0585545338690281
    0.3678869307041168    0.0000000000000000   -0.0588918253779411
    0.3566246032714844    0.0000000000000000   -0.0591822788119316
    0.3454604446887970    0.0000000000000000   -0.0594249181449413
    0.3343999087810516    0.0000000000000000   -0.0596189051866531
    0.3234483003616333    0.0000000000000000   -0.0597634017467499
    0.3126108348369598    0.0000000000000000   -0.0598577819764614
    0.3018926382064819    0.0000000000000000   -0.0599013231694698
    0.2912986874580383    0.0000000000000000   -0.0598935447633266
    0.2808338999748230    0.0000000000000000   -0.0598338842391968
    0.2705030441284180    0.0000000000000000   -0.0597219467163086
    0.2603108584880829    0.0000000000000000   -0.0595574006438255
    0.2502618432044983    0.0000000000000000   -0.0593399815261364
    0.2403605282306671    0.0000000000000000   -0.0590694993734360
    0.2306112647056580    0.0000000000000000   -0.0587457120418549
    0.2210183143615723    0.0000000000000000   -0.0583686605095863
    0.2115858197212219    0.0000000000000000   -0.0579385012388229
    0.2023178189992905    0.0000000000000000   -0.0574553944170475
    0.1932182461023331    0.0000000000000000   -0.0569195412099361
    0.1842909306287766    0.0000000000000000   -0.0563312806189060
    0.1755396127700806    0.0000000000000000   -0.0556906498968601
    0.1669678688049316    0.0000000000000000   -0.0549983829259872
    0.1585792154073715    0.0000000000000000   -0.0542550384998322
    0.1503770351409912    0.0000000000000000   -0.0534612424671650
    0.1423645913600922    0.0000000000000000   -0.0526175722479820
    0.1345451027154922    0.0000000000000000   -0.0517244301736355
    0.1269215941429138    0.0000000000000000   -0.0507829971611500
    0.1194969937205315    0.0000000000000000   -0.0497941114008427
    0.1122741475701332    0.0000000000000000   -0.0487586148083210
    0.1052558645606041    0.0000000000000000   -0.0476769581437111
    0.0984446629881859    0.0000000000000000   -0.0465506128966808
    0.0918430462479591    0.0000000000000000   -0.0453806109726429
    0.0854534432291985    0.0000000000000000   -0.0441677495837212
    0.0792781934142113    0.0000000000000000   -0.0429128147661686
    0.0733193606138229    0.0000000000000000   -0.0416173227131367
    0.0675789937376976    0.0000000000000000   -0.0402823165059090
    0.0620591975748539    0.0000000000000000   -0.0389082767069340
    0.0567617192864418    0.0000000000000000   -0.0374965928494930
    0.0516882315278053    0.0000000000000000   -0.0360484682023525
    0.0468404553830624    0.0000000000000000   -0.0345645472407341
    0.0422200411558151    0.0000000000000000   -0.0330454446375370
    0.0378282368183136    0.0000000000000000   -0.0314925312995911
    0.0336664058268070    0.0000000000000000   -0.0299065206199884
    0.0297362301498652    0.0000000000000000   -0.0282871425151825
    0.0260386765003204    0.0000000000000000   -0.0266355983912945
    0.0225749574601650    0.0000000000000000   -0.0249522440135479
    0.0193465277552605    0.0000000000000000   -0.0232368484139442
    0.0163551270961761    0.0000000000000000   -0.0214887671172619
    0.0136020388454199    0.0000000000000000   -0.0197081863880157
    0.0110892932862043    0.0000000000000000   -0.0178942997008562
    0.0088194860145450    0.0000000000000000   -0.0160460285842419
    0.0067961635068059    0.0000000000000000   -0.0141619862988591
    0.0050239912234247    0.0000000000000000   -0.0122408969327807
    0.0035081766545773    0.0000000000000000   -0.0102825323119760
    0.0022553275339305    0.0000000000000000   -0.0082872183993459
    0.0012724286643788    0.0000000000000000   -0.0062565840780735
    0.0005660858587362    0.0000000000000000   -0.0041940817609429
    0.0001414753787685    0.0000000000000000   -0.0021067147608846
    0.0000000000000003    0.0000000000000000   -0.0000000000000275
    0.0001414811704308    0.0000000000000000    0.0021067140623927
    0.0005660864990205    0.0000000000000000    0.0041940812952816
    0.0012724348343909    0.0000000000000000    0.0062565812841058
    0.0022553286980838    0.0000000000000000    0.0082872174680233
    0.0035081827081740    0.0000000000000000    0.0102825285866857
    0.0050239916890860    0.0000000000000000    0.0122408960014582
    0.0067961672320962    0.0000000000000000    0.0141619835048914
    0.0088194860145450    0.0000000000000000    0.0160460285842419
    0.0110892942175269    0.0000000000000000    0.0178942978382111
    0.0136020379140973    0.0000000000000000    0.0197081863880157
    0.0163551252335310    0.0000000000000000    0.0214887689799070
    0.0193465258926153    0.0000000000000000    0.0232368502765894
    0.0225749555975199    0.0000000000000000    0.0249522477388382
    0.0260386727750301    0.0000000000000000    0.0266356058418751
    0.0297362282872200    0.0000000000000000    0.0282871443778276
    0.0336663983762264    0.0000000000000000    0.0299065317958593
    0.0378282368183136    0.0000000000000000    0.0314925350248814
    0.0422200337052345    0.0000000000000000    0.0330454558134079
    0.0468404516577721    0.0000000000000000    0.0345645584166050
    0.0516882278025150    0.0000000000000000    0.0360484793782234
    0.0567617155611515    0.0000000000000000    0.0374966077506542
    0.0620591975748539    0.0000000000000000    0.0389082804322243
    0.0675789862871170    0.0000000000000000    0.0402823314070702
    0.0733193531632423    0.0000000000000000    0.0416173264384270
    0.0792781859636307    0.0000000000000000    0.0429128296673298
    0.0854534432291985    0.0000000000000000    0.0441677570343018
    0.0918430462479591    0.0000000000000000    0.0453806184232235
    0.0984446629881859    0.0000000000000000    0.0465506277978420
    0.1052558645606041    0.0000000000000000    0.0476769618690014
    0.1122741475701332    0.0000000000000000    0.0487586259841919
    0.1194969937205315    0.0000000000000000    0.0497941114008427
    0.1269215941429138    0.0000000000000000    0.0507830046117306
    0.1345451027154922    0.0000000000000000    0.0517244338989258
    0.1423645913600922    0.0000000000000000    0.0526175796985626
    0.1503770351409912    0.0000000000000000    0.0534612461924553
    0.1585792154073715    0.0000000000000000    0.0542550422251225
    0.1669678688049316    0.0000000000000000    0.0549983866512775
    0.1755396127700806    0.0000000000000000    0.0556906498968601
    0.1842909306287766    0.0000000000000000    0.0563312768936157
    0.1932182461023331    0.0000000000000000    0.0569195374846458
    0.2023178189992905    0.0000000000000000    0.0574553869664669
    0.2115858197212219    0.0000000000000000    0.0579384975135326
    0.2210183143615723    0.0000000000000000    0.0583686493337154
    0.2306112647056580    0.0000000000000000    0.0587457045912743
    0.2403605282306671    0.0000000000000000    0.0590694881975651
    0.2502618432044983    0.0000000000000000    0.0593399628996849
    0.2603108584880829    0.0000000000000000    0.0595573857426643
    0.2705030441284180    0.0000000000000000    0.0597219280898571
    0.2808338999748230    0.0000000000000000    0.0598338730633259
    0.2912986874580383    0.0000000000000000    0.0598935224115849
    0.3018926382064819    0.0000000000000000    0.0599013194441795
    0.3126108348369598    0.0000000000000000    0.0598577521741390
    0.3234483003616333    0.0000000000000000    0.0597633980214596
    0.3343999087810516    0.0000000000000000    0.0596188716590405
    0.3454604446887970    0.0000000000000000    0.0594249181449413
    0.3566246032714844    0.0000000000000000    0.0591822415590286
    0.3678869307041168    0.0000000000000000    0.0588918253779411
    0.3792419135570526    0.0000000000000000    0.0585544966161251
    0.3906838893890381    0.0000000000000000    0.0581713132560253
    0.4022071659564972    0.0000000000000000    0.0577432364225388
    0.4138058722019196    0.0000000000000000    0.0572714135050774
    0.4254740774631500    0.0000000000000000    0.0567568875849247
    0.4372057318687439    0.0000000000000000    0.0562009550631046
    0.4489946663379669    0.0000000000000000    0.0556047223508358
    0.4608346521854401    0.0000000000000000    0.0549695007503033
    0.4727193415164948    0.0000000000000000    0.0542965531349182
    0.4846422672271729    0.0000000000000000    0.0535872541368008
    0.4965968728065491    0.0000000000000000    0.0528429225087166
    0.5085765719413757    0.0000000000000000    0.0520649962127209
    0.5205745697021484    0.0000000000000000    0.0512548200786114
    0.5325841307640076    0.0000000000000000    0.0504138767719269
    0.5445982217788696    0.0000000000000000    0.0495435670018196
    0.5566099882125854    0.0000000000000000    0.0486453548073769
    0.5686122179031372    0.0000000000000000    0.0477206930518150
    0.5805977582931519    0.0000000000000000    0.0467709749937057
    0.5925594568252563    0.0000000000000000    0.0457978136837482
    0.6044898629188538    0.0000000000000000    0.0448026433587074
    0.6163817644119263    0.0000000000000000    0.0437869988381863
    0.6282275915145874    0.0000000000000000    0.0427523218095303
    0.6400198340415955    0.0000000000000000    0.0417000278830528
    0.6517509222030640    0.0000000000000000    0.0406317450106144
    0.6634132862091064    0.0000000000000000    0.0395489595830441
    0.6749992370605469    0.0000000000000000    0.0384531281888485
    0.6865010261535645    0.0000000000000000    0.0373456589877605
    0.6979109644889832    0.0000000000000000    0.0362282320857048
    0.7092212438583374    0.0000000000000000    0.0351022295653820
    0.7204241156578064    0.0000000000000000    0.0339691527187824
    0.7315117120742798    0.0000000000000000    0.0328305214643478
    0.7424762845039368    0.0000000000000000    0.0316878892481327
    0.7533100247383118    0.0000000000000000    0.0305426549166441
    0.7640051245689392    0.0000000000000000    0.0293964128941298
    0.7745538353919983    0.0000000000000000    0.0282506924122572
    0.7849482893943787    0.0000000000000000    0.0271068718284369
    0.7951809167861938    0.0000000000000000    0.0259666591882706
    0.8052439093589783    0.0000000000000000    0.0248314775526524
    0.8151296973228455    0.0000000000000000    0.0237028952687979
    0.8248307704925537    0.0000000000000000    0.0225824899971485
    0.8343395590782166    0.0000000000000000    0.0214717090129852
    0.8436487317085266    0.0000000000000000    0.0203722808510065
    0.8527509570121765    0.0000000000000000    0.0192856099456549
    0.8616389632225037    0.0000000000000000    0.0182133838534355
    0.8703057169914246    0.0000000000000000    0.0171571113169193
    0.8787441849708557    0.0000000000000000    0.0161184463649988
    0.8869475722312927    0.0000000000000000    0.0150988772511482
    0.8949090838432312    0.0000000000000000    0.0141000859439373
    0.9026222825050354    0.0000000000000000    0.0131235523149371
    0.9100807309150696    0.0000000000000000    0.0121709667146206
    0.9172781705856323    0.0000000000000000    0.0112437875941396
    0.9242085814476013    0.0000000000000000    0.0103436037898064
    0.9308661818504333    0.0000000000000000    0.0094719408079982
    0.9372451901435852    0.0000000000000000    0.0086303595453501
    0.9433402419090271    0.0000000000000000    0.0078202364966273
    0.9491461515426636    0.0000000000000000    0.0070431842468679
    0.9546579122543335    0.0000000000000000    0.0063004647381604
    0.9598706960678101    0.0000000000000000    0.0055935163982213
    0.9647800922393799    0.0000000000000000    0.0049237161874771
    0.9693818092346191    0.0000000000000000    0.0042922855354846
    0.9736718535423279    0.0000000000000000    0.0037004377227277
    0.9776465296745300    0.0000000000000000    0.0031493543647230
    0.9813024997711182    0.0000000000000000    0.0026401327922940
    0.9846371412277222    0.0000000000000000    0.0021736854687333
    0.9876506328582764    0.0000000000000000    0.0017505212454125
    0.9903548359870911    0.0000000000000000    0.0013694486115128
    0.9927954077720642    0.0000000000000000    0.0010244693839923
    0.9950689673423767    0.0000000000000000    0.0007021655910648
    0.9972400665283203    0.0000000000000000    0.0003935211861972
    0.9990729093551636    0.0000000000000000    0.0001323268224951
    1.0000000000000000    0.0000000000000000    0.0000000000000000
    1.0001801252365112    0.0000000000000000    0.0000000210670041
    0.9992375373840332    0.0000000000000000   -0.0006552505656146
    0.9974808692932129    0.0000000000000000   -0.0013345675542951
    0.9953644275665283    0.0000000000000000   -0.0019890959374607
    0.9931241869926453    0.0000000000000000   -0.0025944842491299
    0.9907109737396240    0.0000000000000000   -0.0031895441934466
    0.9880338907241821    0.0000000000000000   -0.0038065758999437
    0.9850468039512634    0.0000000000000000   -0.0044569713063538
    0.9817373752593994    0.0000000000000000   -0.0051426142454147
    0.9781054258346558    0.0000000000000000   -0.0058633266016841
    0.9741535782814026    0.0000000000000000   -0.0066185989417136
    0.9698864817619324    0.0000000000000000   -0.0074090929701924
    0.9653070569038391    0.0000000000000000   -0.0082352310419083
    0.9604192972183228    0.0000000000000000   -0.0090961130335927
    0.9552276134490967    0.0000000000000000   -0.0099911708384752
    0.9497365355491638    0.0000000000000000   -0.0109196826815605
    0.9439507722854614    0.0000000000000000   -0.0118806669488549
    0.9378751516342163    0.0000000000000000   -0.0128730041906238
    0.9315150380134583    0.0000000000000000   -0.0138952760025859
    0.9248756766319275    0.0000000000000000   -0.0149460295215249
    0.9179626703262329    0.0000000000000000   -0.0160236470401287
    0.9107819199562073    0.0000000000000000   -0.0171264130622149
    0.9033392667770386    0.0000000000000000   -0.0182525757700205
    0.8956410288810730    0.0000000000000000   -0.0194003656506538
    0.8876934647560120    0.0000000000000000   -0.0205679368227720
    0.8795031905174255    0.0000000000000000   -0.0217534545809031
    0.8710767626762390    0.0000000000000000   -0.0229550711810589
    0.8624210953712463    0.0000000000000000   -0.0241709575057030
    0.8535431027412415    0.0000000000000000   -0.0253992918878794
    0.8444498777389526    0.0000000000000000   -0.0266382619738579
    0.8351486325263977    0.0000000000000000   -0.0278860535472631
    0.8256466388702393    0.0000000000000000   -0.0291409380733967
    0.8159513473510742    0.0000000000000000   -0.0304011330008507
    0.8060701489448547    0.0000000000000000   -0.0316649153828621
    0.7960107326507568    0.0000000000000000   -0.0329305939376354
    0.7857805490493774    0.0000000000000000   -0.0341964736580849
    0.7753874659538269    0.0000000000000000   -0.0354609154164791
    0.7648390531539917    0.0000000000000000   -0.0367222651839256
    0.7541430592536926    0.0000000000000000   -0.0379789024591446
    0.7433073520660400    0.0000000000000000   -0.0392292402684689
    0.7323396801948547    0.0000000000000000   -0.0404716841876507
    0.7212478518486023    0.0000000000000000   -0.0417046919465065
    0.7100397348403931    0.0000000000000000   -0.0429266877472401
    0.6987230777740479    0.0000000000000000   -0.0441361516714096
    0.6873056292533875    0.0000000000000000   -0.0453315414488316
    0.6757952570915222    0.0000000000000000   -0.0465113595128059
    0.6641995906829834    0.0000000000000000   -0.0476740784943104
    0.6525264382362366    0.0000000000000000   -0.0488182082772255
    0.6407833695411682    0.0000000000000000   -0.0499422550201416
    0.6289781332015991    0.0000000000000000   -0.0510447770357132
    0.6171182394027710    0.0000000000000000   -0.0521242283284664
    0.6052111983299255    0.0000000000000000   -0.0531792007386684
    0.5932643413543701    0.0000000000000000   -0.0542082190513611
    0.5812852978706360    0.0000000000000000   -0.0552098080515862
    0.5692812800407410    0.0000000000000000   -0.0561825633049011
    0.5572594404220581    0.0000000000000000   -0.0571249797940254
    0.5452271103858948    0.0000000000000000   -0.0580354593694210
    0.5331913232803345    0.0000000000000000   -0.0589127428829670
    0.5211592316627502    0.0000000000000000   -0.0597556270658970
    0.5091376304626465    0.0000000000000000   -0.0605629161000252
    0.4971333444118500    0.0000000000000000   -0.0613333769142628
    0.4851528108119965    0.0000000000000000   -0.0620654597878456
    0.4732028841972351    0.0000000000000000   -0.0627574324607849
    0.4612902998924255    0.0000000000000000   -0.0634079948067665
    0.4494214355945587    0.0000000000000000   -0.0640159770846367
    0.4376027286052704    0.0000000000000000   -0.0645801797509193
    0.4258404374122620    0.0000000000000000   -0.0650994703173637
    0.4141407310962677    0.0000000000000000   -0.0655727460980415
    0.4025096893310547    0.0000000000000000   -0.0659989193081856
    0.3909532725811005    0.0000000000000000   -0.0663769245147705
    0.3794773817062378    0.0000000000000000   -0.0667057931423187
    0.3680877685546875    0.0000000000000000   -0.0669845640659332
    0.3567901253700256    0.0000000000000000   -0.0672123581171036
    0.3455899953842163    0.0000000000000000   -0.0673883333802223
    0.3344928920269012    0.0000000000000000   -0.0675117075443268
    0.3235041499137878    0.0000000000000000   -0.0675817728042603
    0.3126290738582611    0.0000000000000000   -0.0675979182124138
    0.3018727898597717    0.0000000000000000   -0.0675595551729202
    0.2912403643131256    0.0000000000000000   -0.0674662292003632
    0.2807367444038391    0.0000000000000000   -0.0673175081610680
    0.2703667283058167    0.0000000000000000   -0.0671129897236824
    0.2601351439952850    0.0000000000000000   -0.0668524578213692
    0.2500465810298920    0.0000000000000000   -0.0665357410907745
    0.2401055693626404    0.0000000000000000   -0.0661627352237701
    0.2303164750337601    0.0000000000000000   -0.0657333582639694
    0.2206837385892868    0.0000000000000000   -0.0652476847171783
    0.2112114876508713    0.0000000000000000   -0.0647059231996536
    0.2019037157297134    0.0000000000000000   -0.0641081854701042
    0.1927646249532700    0.0000000000000000   -0.0634548217058182
    0.1837979406118393    0.0000000000000000   -0.0627462491393089
    0.1750074923038483    0.0000000000000000   -0.0619827844202518
    0.1663969308137894    0.0000000000000000   -0.0611650645732880
    0.1579696983098984    0.0000000000000000   -0.0602935925126076
    0.1497294306755066    0.0000000000000000   -0.0593690909445286
    0.1416792571544647    0.0000000000000000   -0.0583922602236271
    0.1338225454092026    0.0000000000000000   -0.0573638081550598
    0.1261622458696365    0.0000000000000000   -0.0562846511602402
    0.1187014430761337    0.0000000000000000   -0.0551556050777435
    0.1114429607987404    0.0000000000000000   -0.0539776794612408
    0.1043896228075027    0.0000000000000000   -0.0527517050504684
    0.0975439250469208    0.0000000000000000   -0.0514787621796131
    0.0909086018800735    0.0000000000000000   -0.0501598715782166
    0.0844858661293983    0.0000000000000000   -0.0487960465252399
    0.0782782286405563    0.0000000000000000   -0.0473883412778378
    0.0722876191139221    0.0000000000000000   -0.0459377393126488
    0.0665163919329643    0.0000000000000000   -0.0444454364478588
    0.0609663724899292    0.0000000000000000   -0.0429122969508171
    0.0556394234299660    0.0000000000000000   -0.0413393974304199
    0.0505374111235142    0.0000000000000000   -0.0397276841104031
    0.0456618592143059    0.0000000000000000   -0.0380780547857285
    0.0410145781934261    0.0000000000000000   -0.0363914072513580
    0.0365967489778996    0.0000000000000000   -0.0346683189272881
    0.0324100665748119    0.0000000000000000   -0.0329097509384155
    0.0284559000283480    0.0000000000000000   -0.0311160124838352
    0.0247353799641132    0.0000000000000000   -0.0292876008898020
    0.0212501771748066    0.0000000000000000   -0.0274248942732811
    0.0180013645440340    0.0000000000000000   -0.0255278833210468
    0.0149907991290092    0.0000000000000000   -0.0235965289175510
    0.0122197540476918    0.0000000000000000   -0.0216304007917643
    0.0096906423568726    0.0000000000000000   -0.0196290425956249
    0.0074057606980205    0.0000000000000000   -0.0175917483866215
    0.0053682494908571    0.0000000000000000   -0.0155172320082784
    0.0035826943349093    0.0000000000000000   -0.0134046496823430
    0.0020544317085296    0.0000000000000000   -0.0112535059452057
    0.0007901923963800    0.0000000000000000   -0.0090641295537353
   -0.0002025255525950    0.0000000000000000   -0.0068383496254683
   -0.0009163654176518    0.0000000000000000   -0.0045803543180227
   -0.0013456486631185    0.0000000000000000   -0.0022987162228674
   -0.0014886254211888    0.0000000000000000   -0.0000000344550379
   -0.0013456484302878    0.0000000000000000    0.0022987425327301
   -0.0009163597133011    0.0000000000000000    0.0045803538523614
   -0.0002025186695391    0.0000000000000000    0.0068383463658392
    0.0007901983335614    0.0000000000000000    0.0090641267597675
    0.0020544361323118    0.0000000000000000    0.0112535012885928
    0.0035826966632158    0.0000000000000000    0.0134046468883753
    0.0053682508878410    0.0000000000000000    0.0155172292143106
    0.0074057602323592    0.0000000000000000    0.0175917465239763
    0.0096906414255500    0.0000000000000000    0.0196290425956249
    0.0122197531163692    0.0000000000000000    0.0216304026544094
    0.0149907954037189    0.0000000000000000    0.0235965307801962
    0.0180013608187437    0.0000000000000000    0.0255278870463371
    0.0212501734495163    0.0000000000000000    0.0274248979985714
    0.0247353781014681    0.0000000000000000    0.0292876064777374
    0.0284558981657028    0.0000000000000000    0.0311160180717707
    0.0324100628495216    0.0000000000000000    0.0329097583889961
    0.0365967489778996    0.0000000000000000    0.0346683301031590
    0.0410145744681358    0.0000000000000000    0.0363914109766483
    0.0456618554890156    0.0000000000000000    0.0380780659615993
    0.0505374036729336    0.0000000000000000    0.0397276915609837
    0.0556394234299660    0.0000000000000000    0.0413394086062908
    0.0609663724899292    0.0000000000000000    0.0429123081266880
    0.0665163844823837    0.0000000000000000    0.0444454476237297
    0.0722876191139221    0.0000000000000000    0.0459377504885197
    0.0782782286405563    0.0000000000000000    0.0473883487284184
    0.0844858661293983    0.0000000000000000    0.0487960577011108
    0.0909086018800735    0.0000000000000000    0.0501598790287971
    0.0975439250469208    0.0000000000000000    0.0514787696301937
    0.1043896228075027    0.0000000000000000    0.0527517125010490
    0.1114429533481598    0.0000000000000000    0.0539776869118214
    0.1187014430761337    0.0000000000000000    0.0551556125283241
    0.1261622458696365    0.0000000000000000    0.0562846548855305
    0.1338225454092026    0.0000000000000000    0.0573638156056404
    0.1416792571544647    0.0000000000000000    0.0583922639489174
    0.1497294306755066    0.0000000000000000    0.0593690909445286
    0.1579696983098984    0.0000000000000000    0.0602935925126076
    0.1663969308137894    0.0000000000000000    0.0611650682985783
    0.1750074923038483    0.0000000000000000    0.0619827844202518
    0.1837979555130005    0.0000000000000000    0.0627462416887283
    0.1927646249532700    0.0000000000000000    0.0634548217058182
    0.2019037306308746    0.0000000000000000    0.0641081780195236
    0.2112114876508713    0.0000000000000000    0.0647059157490730
    0.2206837385892868    0.0000000000000000    0.0652476772665977
    0.2303164899349213    0.0000000000000000    0.0657333433628082
    0.2401055544614792    0.0000000000000000    0.0661627203226089
    0.2500465810298920    0.0000000000000000    0.0665357261896133
    0.2601351439952850    0.0000000000000000    0.0668524429202080
    0.2703666985034943    0.0000000000000000    0.0671129748225212
    0.2807367444038391    0.0000000000000000    0.0673174932599068
    0.2912403643131256    0.0000000000000000    0.0674662142992020
    0.3018727898597717    0.0000000000000000    0.0675595402717590
    0.3126290738582611    0.0000000000000000    0.0675978958606720
    0.3235041499137878    0.0000000000000000    0.0675817579030991
    0.3344928920269012    0.0000000000000000    0.0675116851925850
    0.3455899953842163    0.0000000000000000    0.0673883184790611
    0.3567901253700256    0.0000000000000000    0.0672123357653618
    0.3680877685546875    0.0000000000000000    0.0669845417141914
    0.3794773817062378    0.0000000000000000    0.0667057633399963
    0.3909532725811005    0.0000000000000000    0.0663769021630287
    0.4025096893310547    0.0000000000000000    0.0659988895058632