VARIABLES = "X" "Y" "Z" "OrthoChange" "Orthogonality"
ZONE T="C2_R0.5"    I=257    J=129    K=1    F=POINT
    0.8191520442889768    0.0000000000000000    -0.5735764363510452    -0.0012385075419381    -1.6973277025668132
    0.8183167181222544    0.0000000000000000    -0.5731530725370515    -0.0074071858478449    0.8481662927117738
    0.8166655255653907    0.0000000000000000    -0.5723157559425598    -0.0072976777750552    0.9537232667620924
    0.8147100326687919    0.0000000000000000    -0.5713232933063228    -0.0066327484244388    0.9726623040893008
    0.8126627748697821    0.0000000000000000    -0.5702832503037527    -0.0050469990100347    0.9821274582842219
    0.8104657017440751    0.0000000000000000    -0.5691659888508909    -0.0038729797686636    0.9871884948705538
    0.8080319726709142    0.0000000000000000    -0.5679270798960552    -0.0030545884120720    0.9903244379921551
    0.8053207491495478    0.0000000000000000    -0.5665452460370037    -0.0023625614222590    0.9926456444981095
    0.8023216213131334    0.0000000000000000    -0.5650146745164637    -0.0017491562044606    0.9944371900015171
    0.7990347549835946    0.0000000000000000    -0.5633348167636605    -0.0012061382149271    0.9958501392861450
    0.7954627975346753    0.0000000000000000    -0.5615064643081595    -0.0008033519783142    0.9968371762092705
    0.7916091312809321    0.0000000000000000    -0.5595306060857759    -0.0005400103174831    0.9974968947693502
    0.7874774561944307    0.0000000000000000    -0.5574084008753530    -0.0003843033429514    0.9979575654460308
    0.7830717254548034    0.0000000000000000    -0.5551411654256047    -0.0003796091767915    0.9982090649963398
    0.7783961785686522    0.0000000000000000    -0.5527303271556629    -0.0005875460884340    0.9981907932335304
    0.7734552034404771    0.0000000000000000    -0.5501773093853011    -0.0010742684945987    0.9978542085047872
    0.7682535682131402    0.0000000000000000    -0.5474837198205957    -0.0019428417292370    0.9971076831219007
    0.7627961346209275    0.0000000000000000    -0.5446513442576659    -0.0033394274991396    0.9958103208417829
    0.7570880489606360    0.0000000000000000    -0.5416818738477804    -0.0054515755602000    0.9937835242994958
    0.7511344880868371    0.0000000000000000    -0.5385772678538743    -0.0085488481843841    0.9907602668441675
    0.7449411127240779    0.0000000000000000    -0.5353395219235590    -0.0130017553405715    0.9863707284626055
    0.7385135002641050    0.0000000000000000    -0.5319707507160576    -0.0193135742766121    0.9801168132909709
    0.7318575115401806    0.0000000000000000    -0.5284730797642450    -0.0281623553339658    0.9713185085780673
    0.7249791268324621    0.0000000000000000    -0.5248488796832973    -0.0404998621224546    0.9590270157866199
    0.7178845487510408    0.0000000000000000    -0.5211005153208035    -0.0576821422431714    0.9418865596210553
    0.7105799216799618    0.0000000000000000    -0.5172304346799148    -0.0815023008548561    0.9181051190957561
    0.7030717903259465    0.0000000000000000    -0.5132411375488051    -0.1146031205277215    0.8850392026443197
    0.6953665407428957    0.0000000000000000    -0.5091353502954385    -0.1606176589359050    0.8390568558591673
    0.6874709140069672    0.0000000000000000    -0.5049157079334874    -0.2247695576043730    0.7749343978013195
    0.6793915123062906    0.0000000000000000    -0.5005850438292843    -0.3142547616792847    0.6854764693939510
    0.6711352762916292    0.0000000000000000    -0.4961461236446238    -0.4388339585839515    0.5609226240395915
    0.6627090266365716    0.0000000000000000    -0.4916019883038905    -0.6103639238651547    0.3894153959645992
    0.6541197261078704    0.0000000000000000    -0.4869554758014552    -0.8410358422639017    0.1587651588745133
    0.6453744355517328    0.0000000000000000    -0.4822096997297934    -1.1362537776826001    -0.1364337176933210
    0.6364802022452700    0.0000000000000000    -0.4773676891425378    -1.4842351408301211    -0.4843966177491645
    0.6274441222908846    0.0000000000000000    -0.4724325072811144    -1.8442785469504712    -0.8444238140559748
    0.6182734251265876    0.0000000000000000    -0.4674074426340482    -2.1570677474341560    -1.1571974301894747
    0.6089752538630524    0.0000000000000000    -0.4622954913080219    -2.3750063477846255    -1.3751218508279379
    0.5995568899686674    0.0000000000000000    -0.4570999714020076    -2.4908787153112057    -1.4909815550843533
    0.5900255332868496    0.0000000000000000    -0.4518241097524829    -2.5303306354572008    -1.5304217694332518
    0.5803884901782266    0.0000000000000000    -0.4464710849911073    -2.5274510793512457    -1.5275314966931788
    0.5706529793971398    0.0000000000000000    -0.4410442008642936    -2.5080692178829054    -1.5081399912166762
    0.5608262093339569    0.0000000000000000    -0.4355466720022012    -2.4867419638025452    -1.4868038361371343
    0.5509155287643552    0.0000000000000000    -0.4299817203790522    -2.4705269275623607    -1.4705807112689979
    0.5409281161643698    0.0000000000000000    -0.4243526033471159    -2.4621601613435389    -1.4622066781895033
    0.5308711860148536    0.0000000000000000    -0.4186626307559614    -2.4626677989292833    -1.4627078668319724
    0.5207519876239403    0.0000000000000000    -0.4129148548816046    -2.4728199626894871    -1.4728542838834167
    0.5105776738267921    0.0000000000000000    -0.4071125696952692    -2.4925012108786424    -1.4925303967241477
    0.5003553999150353    0.0000000000000000    -0.4012589617424558    -2.5198215971271343    -1.5198464431250960
    0.4900921786582478    0.0000000000000000    -0.3953572132761905    -2.5483450261271399    -1.5483659720186012
    0.4797951894916322    0.0000000000000000    -0.3894102685263218    -2.5639930826866952    -1.5640105964225191
    0.4694713960397753    0.0000000000000000    -0.3834213799321966    -2.5425616534387481    -1.5425764052339721
    0.4591277351088350    0.0000000000000000    -0.3773935264812676    -2.4533691199076357    -1.4533817039537880
    0.4487710943599779    0.0000000000000000    -0.3713297573473086    -2.2734712163173008    -1.2734819468052048
    0.4384083828217579    0.0000000000000000    -0.3652330911883027    -2.0078012334135065    -1.0078106591180176
    0.4280463655033924    0.0000000000000000    -0.3591063366730528    -1.6924651570142313    -0.6924737773989853
    0.4176917048506392    0.0000000000000000    -0.3529524489461624    -1.3740184421072716    -0.3740266170141742
    0.4073511591427750    0.0000000000000000    -0.3467743502053130    -1.0878526853835009    -0.0878607872125734
    0.3970311466992246    0.0000000000000000    -0.3405748246560092    -0.8475275073932981    0.1524640905916756
    0.3867382750499873    0.0000000000000000    -0.3343566980356314    -0.6512258427151220    0.3487651309652859
    0.3764788648639549    0.0000000000000000    -0.3281226861740451    -0.4859562696853308    0.5140335871878432
    0.3662593155496278    0.0000000000000000    -0.3218754963668265    -0.3545349749923510    0.6454533391694640
    0.3560857701575241    0.0000000000000000    -0.3156178383153500    -0.2575180141306384    0.7424686001770123
    0.3459644370685547    0.0000000000000000    -0.3093522764607548    -0.1873550692035990    0.8126294021813032
    0.3359013168111915    0.0000000000000000    -0.3030815162119379    -0.1365567768451615    0.8634250548815073
    0.3259024233737869    0.0000000000000000    -0.2968080359200400    -0.0995962242743834    0.9003824645159885
    0.3159735235224482    0.0000000000000000    -0.2905344591711049    -0.0725477515232270    0.9274273956063658
    0.3061203907532235    0.0000000000000000    -0.2842632960222969    -0.0527156808816065    0.9472555951974089
    0.2963486389462048    0.0000000000000000    -0.2779970766509374    -0.0381903924711443    0.9617765931358120
    0.2866638099718148    0.0000000000000000    -0.2717382262397583    -0.0275592443391606    0.9724031791929647
    0.2770712879015350    0.0000000000000000    -0.2654892914142091    -0.0198128514005205    0.9801446125229524
    0.2675763680229925    0.0000000000000000    -0.2592526338436423    -0.0141991330706066    0.9857529866023286
    0.2581842122375054    0.0000000000000000    -0.2530307537340385    -0.0101671522509349    0.9897792768377476
    0.2488998967077842    0.0000000000000000    -0.2468260139449825    -0.0073101989821114    0.9926301142047628
    0.2397283697119394    0.0000000000000000    -0.2406408560566690    -0.0053214253231340    0.9946122846751763
    0.2306744574649151    0.0000000000000000    -0.2344776361797429    -0.0039760706927816    0.9959507593616365
    0.2217427911496474    0.0000000000000000    -0.2283388330831320    -0.0030998063338799    0.9968194514684088
    0.2129379842663798    0.0000000000000000    -0.2222267949129763    -0.0025709314029759    0.9973404790080349
    0.2042643893641714    0.0000000000000000    -0.2161439826985119    -0.0022910702464697    0.9976118468215227
    0.1957263571750670    0.0000000000000000    -0.2100927561464141    -0.0021904452764973    0.9977033641762678
    0.1873280202147017    0.0000000000000000    -0.2040755268148702    -0.0022170841141044    0.9976671920730142
    0.1790734502615187    0.0000000000000000    -0.1980947410450042    -0.0023314634285346    0.9975425995852265
    0.1709664853315978    0.0000000000000000    -0.1921527633550861    -0.0025073674130304    0.9973558387385808
    0.1630109451188771    0.0000000000000000    -0.1862520363888785    -0.0027211965311243    0.9971302504050575
    0.1552105327558377    0.0000000000000000    -0.1803948575045770    -0.0029597572104106    0.9968793758309237
    0.1475687157449163    0.0000000000000000    -0.1745837046986636    -0.0032124723553161    0.9966134406481719
    0.1400887976991163    0.0000000000000000    -0.1688210821909354    -0.0034716481403926    0.9963398374658795
    0.1327739946504850    0.0000000000000000    -0.1631094374240838    -0.0037331613498761    0.9960634998440049
    0.1256274136827281    0.0000000000000000    -0.1574511915794863    -0.0039955461787160    0.9957849251875976
    0.1186519973760003    0.0000000000000000    -0.1518488189182653    -0.0042542317263101    0.9955084079936353
    0.1118507881483949    0.0000000000000000    -0.1463044952419009    -0.0045117001240506    0.9952322772380338
    0.1052262945783780    0.0000000000000000    -0.1408208729806729    -0.0047659641549620    0.9949574036879215
    0.0987810768458702    0.0000000000000000    -0.1354004269528206    -0.0050157301935778    0.9946859915991778
    0.0925175468126447    0.0000000000000000    -0.1300456099824135    -0.0052673528756965    0.9944104225671208
    0.0864380464675451    0.0000000000000000    -0.1247587668473528    -0.0055175381998228    0.9941339776459484
    0.0805449816071854    0.0000000000000000    -0.1195420732604542    -0.0057725917468885    0.9938506691753511
    0.0748401527676677    0.0000000000000000    -0.1143982316041644    -0.0060260074953070    0.9935660243998643
    0.0693254777239998    0.0000000000000000    -0.1093296079604399    -0.0062880350815276    0.9932703408917352
    0.0640028049797084    0.0000000000000000    -0.1043385244545642    -0.0065556985467301    0.9929643239532048
    0.0588741768800960    0.0000000000000000    -0.0994269614286213    -0.0068369554806794    0.9926418377050767
    0.0539408122808781    0.0000000000000000    -0.0945975686917650    -0.0071225825321320    0.9923101652768540
    0.0492041699666223    0.0000000000000000    -0.0898526274198526    -0.0074279344443031    0.9919530189211091
    0.0446657823048549    0.0000000000000000    -0.0851941838044796    -0.0077464013666095    0.9915767720811866
    0.0403271148354175    0.0000000000000000    -0.0806242236007741    -0.0080889374279324    0.9911686688393875
    0.0361889884805021    0.0000000000000000    -0.0761451725547144    -0.0084475381459734    0.9907384736091945
    0.0322524833218039    0.0000000000000000    -0.0717590603147698    -0.0088369198199336    0.9902645242644540
    0.0285190478622521    0.0000000000000000    -0.0674674877920370    -0.0092564012139836    0.9897510151638054
    0.0249893162889280    0.0000000000000000    -0.0632725953560099    -0.0097023367258007    0.9891964983331465
    0.0216639685942650    0.0000000000000000    -0.0591763280624502    -0.0101915334879789    0.9885829811134428
    0.0185440449520350    0.0000000000000000    -0.0551802010078479    -0.0107118872531299    0.9879185222652079
    0.0156305446499170    0.0000000000000000    -0.0512856642780241    -0.0112824069500665    0.9871775393791695
    0.0129237036470763    0.0000000000000000    -0.0474945566615869    -0.0118887295772961    0.9863806551628285
    0.0104242296360193    0.0000000000000000    -0.0438082445823225    -0.0125420214655941    0.9854929852772691
    0.0081336553182972    0.0000000000000000    -0.0402274715382800    -0.0132510843176800    0.9845144698571239
    0.0060520834804608    0.0000000000000000    -0.0367537761474410    -0.0139829571424386    0.9834621624591655
    0.0041803033529785    0.0000000000000000    -0.0333881453440735    -0.0147764527299307    0.9822866812047245
    0.0025196390553154    0.0000000000000000    -0.0301312243267447    -0.0155893439325548    0.9810153406476850
    0.0010718853307418    0.0000000000000000    -0.0269834830292482    -0.0164580523985735    0.9796043122936162
    -0.0001620133886564    0.0000000000000000    -0.0239458101370360    -0.0173156257487670    0.9780934434296860
    -0.0011799313883006    0.0000000000000000    -0.0210187095058289    -0.0182035098217888    0.9764306783638840
    -0.0019791238945440    0.0000000000000000    -0.0182027864761720    -0.0190968672505071    0.9745919379781455
    -0.0025558904030297    0.0000000000000000    -0.0154989392729959    -0.0199504767756733    0.9726089627536654
    -0.0029056773592869    0.0000000000000000    -0.0129087987286090    -0.0207755496503040    0.9704657757345581
    -0.0030240881618439    0.0000000000000000    -0.0104351648274451    -0.0215139762566823    0.9682029203454845
    -0.0029058970367993    0.0000000000000000    -0.0080820946230098    -0.0221251465865704    0.9659399486624400
    -0.0025463166575947    0.0000000000000000    -0.0058549287366453    -0.0225661798514175    0.9638950528982311
    -0.0019419160817799    0.0000000000000000    -0.0037602841579142    -0.0228250325259629    0.9623964014634367
    -0.0010924720992216    0.0000000000000000    -0.0018068666466979    -0.0230503056518637    0.9615438585206184
    -0.0000000000000157    0.0000000000000000    -0.0000000000000228    -0.0232583404250823    0.9613268184743994
    0.0013242561343044    0.0000000000000000    0.0016445688653948    -0.0233715700424777    0.9612209586726619
    0.0028693371160311    0.0000000000000000    0.0031108963901695    -0.0233665930665028    0.9618556898772066
    0.0046309451924938    0.0000000000000000    0.0043952527113367    -0.0231696006765985    0.9632919484251525
    0.0066008097761538    0.0000000000000000    0.0054948877329515    -0.0229543457889582    0.9651105971590593
    0.0087715511405689    0.0000000000000000    0.0064107433764209    -0.0227401965591766    0.9669768353824421
    0.0111365025688658    0.0000000000000000    0.0071455117342401    -0.0225318772960154    0.9687092482625919
    0.0136900743118995    0.0000000000000000    0.0077026963573873    -0.0223474147164588    0.9702120620105279
    0.0164281238913290    0.0000000000000000    0.0080854877588307    -0.0221760639163429    0.9715127500596235
    0.0193475656130545    0.0000000000000000    0.0082975927963493    -0.0220851523635291    0.9725490333765059
    0.0224462884792093    0.0000000000000000    0.0083421927350918    -0.0220776238524498    0.9733313315365012
    0.0257227858027150    0.0000000000000000    0.0082216545916208    -0.0221661341386787    0.9738962536257537
    0.0291758560084945    0.0000000000000000    0.0079378020296459    -0.0224245566315890    0.9741801126564140
    0.0328043423644327    0.0000000000000000    0.0074912221624661    -0.0228001859277943    0.9742630338078561
    0.0366071879130718    0.0000000000000000    0.0068834418386350    -0.0233568447612897    0.9740882225796779
    0.0405833316577022    0.0000000000000000    0.0061154722926905    -0.0240642642497134    0.9737012751927541
    0.0447315809848217    0.0000000000000000    0.0051877438527613    -0.0249748582748769    0.9730600703533565
    0.0490504535328015    0.0000000000000000    0.0040997891777825    -0.0260514024771870    0.9722177764921908
    0.0535387217026435    0.0000000000000000    0.0028528362087451    -0.0273173078021653    0.9711427734000224
    0.0581948679715274    0.0000000000000000    0.0014470493479699    -0.0287895722267869    0.9698407379523339
    0.0630170758077409    0.0000000000000000    -0.0001179639280863    -0.0304415036302190    0.9683331575984592
    0.0680036459881407    0.0000000000000000    -0.0018417596398862    -0.0323060070279966    0.9665927886374276
    0.0731527913952381    0.0000000000000000    -0.0037238959319643    -0.0343661599742043    0.9646411842229033
    0.0784624608644485    0.0000000000000000    -0.0057643600059526    -0.0366379436261602    0.9624634758905933
    0.0839304158186276    0.0000000000000000    -0.0079633352730565    -0.0391129361346232    0.9600729753263365
    0.0895546760139572    0.0000000000000000    -0.0103199672371763    -0.0417932555698369    0.9574642540830847
    0.0953329473940849    0.0000000000000000    -0.0128339729750222    -0.0446954857560521    0.9546275682223997
    0.1012626724823431    0.0000000000000000    -0.0155053808180465    -0.0477916408164309    0.9515893249561469
    0.1073414901383034    0.0000000000000000    -0.0183334970510052    -0.0511063047402210    0.9483264529616882
    0.1135669385130906    0.0000000000000000    -0.0213176029192388    -0.0546174298200361    0.9448613638200076
    0.1199363964362647    0.0000000000000000    -0.0244570773059553    -0.0583427680224827    0.9411773549679201
    0.1264469356611246    0.0000000000000000    -0.0277517116653317    -0.0622511020386587    0.9373073114809921
    0.1330960181189807    0.0000000000000000    -0.0312002336216498    -0.0663586019246170    0.9332334564879399
    0.1398808124064887    0.0000000000000000    -0.0348017247760415    -0.0706443631232733    0.9289788768192206
    0.1467984498999051    0.0000000000000000    -0.0385551769992781    -0.0751124601623125    0.9245390584975274
    0.1538457668238149    0.0000000000000000    -0.0424598348164189    -0.0797327356610006    0.9199450539591356
    0.1610199022562540    0.0000000000000000    -0.0465141725010103    -0.0845118419708446    0.9151898902225268
    0.1683178496826326    0.0000000000000000    -0.0507167943162714    -0.0894285810419697    0.9102947703423276
    0.1757364771602243    0.0000000000000000    -0.0550662758203099    -0.0944767322403988    0.9052672327392134
    0.1832725856242272    0.0000000000000000    -0.0595610546170569    -0.0996320983902269    0.9001304501328912
    0.1909228267578525    0.0000000000000000    -0.0641996775468441    -0.1048776405635782    0.8949027991575644
    0.1986841111347555    0.0000000000000000    -0.0689800359429325    -0.1102090160825447    0.8895875511913789
    0.2065531136985470    0.0000000000000000    -0.0739002017768704    -0.1156013260696325    0.8842101589649217
    0.2145264859140453    0.0000000000000000    -0.0789580986957257    -0.1210402367654293    0.8787857156167695
    0.2226008408101039    0.0000000000000000    -0.0841515233831394    -0.1265051849453109    0.8733338695939955
    0.2307726846039724    0.0000000000000000    -0.0894782432098610    -0.1319784678416747    0.8678730180658895
    0.2390385049217006    0.0000000000000000    -0.0949358442625705    -0.1374443128066347    0.8624188945457189
    0.2473948849537976    0.0000000000000000    -0.1005216202714646    -0.1428907085343979    0.8569833561868385
    0.2558382122699826    0.0000000000000000    -0.1062328325896011    -0.1482942266253173    0.8515901941264138
    0.2643649629547699    0.0000000000000000    -0.1120666681165736    -0.1536500999874546    0.8462437101149836
    0.2729714284753005    0.0000000000000000    -0.1180201617428004    -0.1589379898426669    0.8409649271111848
    0.2816539570821548    0.0000000000000000    -0.1240902153047821    -0.1641395380701913    0.8357718642739951
    0.2904088006036106    0.0000000000000000    -0.1302736085505190    -0.1692494489184364    0.8306698228217936
    0.2992322133244097    0.0000000000000000    -0.1365670138022931    -0.1742553459145786    0.8256714706825202
    0.3081203488335137    0.0000000000000000    -0.1429669873970445    -0.1791517468121965    0.8207819761740036
    0.3170693622678403    0.0000000000000000    -0.1494699275847132    -0.1839265343549320    0.8160137663383711
    0.3260753120222816    0.0000000000000000    -0.1560722149008805    -0.1885781955365633    0.8113682392861401
    0.3351342946839675    0.0000000000000000    -0.1627699155431408    -0.1931017777688815    0.8068503350534793
    0.3442422682717353    0.0000000000000000    -0.1695591896875939    -0.1974901950265249    0.8024672797871144
    0.3533952012190562    0.0000000000000000    -0.1764359228428822    -0.2017479935865587    0.7982144188416503
    0.3625889819915621    0.0000000000000000    -0.1833960627647962    -0.2058771489599619    0.7940898468545196
    0.3718194594160212    0.0000000000000000    -0.1904353020667091    -0.2098751805145881    0.7900960852106145
    0.3810823736652502    0.0000000000000000    -0.1975493846183911    -0.2137478809563707    0.7862272756555799
    0.3903735125597672    0.0000000000000000    -0.2047337784065892    -0.2174964097735105    0.7824822693790983
    0.3996884572958811    0.0000000000000000    -0.2119840386729492    -0.2211241937896351    0.7788576461230917
    0.4090228577652648    0.0000000000000000    -0.2192955186344425    -0.2246410980466678    0.7753433986589710
    0.4183722384314544    0.0000000000000000    -0.2266635428029302    -0.2280631625401667    0.7719234511816424
    0.4277320902096146    0.0000000000000000    -0.2340832757672593    -0.2313736266409717    0.7686146852977532
    0.4370977987259292    0.0000000000000000    -0.2415498766082342    -0.2348307084935002    0.7651591523782937
    0.4464647935695886    0.0000000000000000    -0.2490583896622170    -0.2384452613797640    0.7615457085645632
    0.4558282800228812    0.0000000000000000    -0.2566038158976787    -0.2414670945735429    0.7585245070212344
    0.4651835912526953    0.0000000000000000    -0.2641810775624817    -0.2438811358610372    0.7561107588393166
    0.4745257692913338    0.0000000000000000    -0.2717849931001317    -0.2460063239809338    0.7539855046421291
    0.4838500389714585    0.0000000000000000    -0.2794104316407463    -0.2478948294622897    0.7520965498029055
    0.4931513257639148    0.0000000000000000    -0.2870520663422638    -0.2495272155807280    0.7504633552572811
    0.5024245697769949    0.0000000000000000    -0.2947046533757084    -0.2509616863196698    0.7490275861083708
    0.5116648371865766    0.0000000000000000    -0.3023627688689337    -0.2522780536387549    0.7477093595927040
    0.5208668474787457    0.0000000000000000    -0.3100209644864924    -0.2535182620654602    0.7464670238378976
    0.5300255731325993    0.0000000000000000    -0.3176738462515832    -0.2547137306002017    0.7452687547964971
    0.5391356402571669    0.0000000000000000    -0.3253158913499598    -0.2558674910889076    0.7441115638931408
    0.5481917088295751    0.0000000000000000    -0.3329416325162560    -0.2569831191480616    0.7429920329095108
    0.5571885117957877    0.0000000000000000    -0.3405453943572676    -0.2580470728135100    0.7419237429362868
    0.5661207009057015    0.0000000000000000    -0.3481216174398029    -0.2590302641135516    0.7409354152553758
    0.5749828131647661    0.0000000000000000    -0.3556646983676617    -0.2598895692035942    0.7400703628937169
    0.5837693089755642    0.0000000000000000    -0.3631690392273541    -0.2605904372154998    0.7393630470262693
    0.5924748535478686    0.0000000000000000    -0.3706288535279318    -0.2610798716705274    0.7388663430585638
    0.6010938435018263    0.0000000000000000    -0.3780385305291363    -0.2613079267647749    0.7386302002490052
    0.6096207926584851    0.0000000000000000    -0.3853923960280017    -0.2612270511931001    0.7387021784096078
    0.6180501278720540    0.0000000000000000    -0.3926846921880230    -0.2607774537604987    0.7391421234231599
    0.6263763928779271    0.0000000000000000    -0.3999097020841236    -0.2599098099491142    0.7399990609601621
    0.6345939939115661    0.0000000000000000    -0.4070618012439349    -0.2585800969558000    0.7413170583724604
    0.6426974493872306    0.0000000000000000    -0.4141352049871986    -0.2567394352333581    0.7431450662156869
    0.6506812891515068    0.0000000000000000    -0.4211242162240962    -0.2543437037642953    0.7455266101595325
    0.6585398588625306    0.0000000000000000    -0.4280231930781366    -0.2513527879228449    0.7485021588253868
    0.6662679374061504    0.0000000000000000    -0.4348263945471595    -0.2477399793789326    0.7520981339260413
    0.6738599449066447    0.0000000000000000    -0.4415281763235321    -0.2434705578212274    0.7563494927249576
    0.6813105801221582    0.0000000000000000    -0.4481229118393388    -0.2385467437247945    0.7612542561221443
    0.6886145959779384    0.0000000000000000    -0.4546050010855058    -0.2329452278935058    0.7668340925655088
    0.6957666217881222    0.0000000000000000    -0.4609689166704217    -0.2266721556653076    0.7730844233238416
    0.7027616434917174    0.0000000000000000    -0.4672090375595310    -0.2197360520834867    0.7799951870515420
    0.7095944611314113    0.0000000000000000    -0.4733200082056399    -0.2121635031797309    0.7875404587016993
    0.7162600859673098    0.0000000000000000    -0.4792962753294079    -0.2039749948714779    0.7956995190032878
    0.7227536219971427    0.0000000000000000    -0.4851325688785391    -0.1952231294949536    0.8044191874633333
    0.7290702565514824    0.0000000000000000    -0.4908234997891334    -0.1859459956532614    0.8136614274373570
    0.7352052771770428    0.0000000000000000    -0.4963639515438905    -0.1762155246163691    0.8233531745864988
    0.7411540825309384    0.0000000000000000    -0.5017486489433569    -0.1660846813014978    0.8334422003611048
    0.7469122483038539    0.0000000000000000    -0.5069726874631773    -0.1556598971323453    0.8438209542529026
    0.7524754709122021    0.0000000000000000    -0.5120309901647744    -0.1450095635085705    0.8544208366810372
    0.7578394602362266    0.0000000000000000    -0.5169187726338151    -0.1342241349947760    0.8651483481187163
    0.7630001962430129    0.0000000000000000    -0.5216312804020422    -0.1234044394557677    0.8759046696061331
    0.7679538178762471    0.0000000000000000    -0.5261639476292181    -0.1126549789854443    0.8865809113454760
    0.7726964843785957    0.0000000000000000    -0.5305121794851928    -0.1020464610067090    0.8971032918254942
    0.7772245910010263    0.0000000000000000    -0.5346717715076785    -0.0916909326656502    0.9073605470838234
    0.7815348148860934    0.0000000000000000    -0.5386384284040204    -0.0816607660136696    0.9172677472948291
    0.7856237785316793    0.0000000000000000    -0.5424082446749328    -0.0720479543819558    0.9267303726288799
    0.7894883521394185    0.0000000000000000    -0.5459772728160104    -0.0628815354699064    0.9357071454209445
    0.7931257124316353    0.0000000000000000    -0.5493418549886169    -0.0542214066941999    0.9441232754028971
    0.7965330445723460    0.0000000000000000    -0.5524985291332651    -0.0461439047362824    0.9518929987826339
    0.7997077731777829    0.0000000000000000    -0.5554440108047931    -0.0387110410498435    0.9589295214309739
    0.8026475488282472    0.0000000000000000    -0.5581752124356303    -0.0316496334279865    0.9654066419769353
    0.8053502667119119    0.0000000000000000    -0.5606893206270893    -0.0249944220567691    0.9711918882731625
    0.8078143018844592    0.0000000000000000    -0.5629840836689297    -0.0188615043617363    0.9761466999102959
    0.8100400926868723    0.0000000000000000    -0.5650591872979547    -0.0131325663513362    0.9802465683424952
    0.8120366719246697    0.0000000000000000    -0.5669224109188384    -0.0076536666475167    0.9834077108975846
    0.8138379993356324    0.0000000000000000    -0.5686048558253685    -0.0020962887412108    0.9850628394073053
    0.8155155244444821    0.0000000000000000    -0.5701729318324151    0.0033919305216784    0.9826744967949294
    0.8171169536231808    0.0000000000000000    -0.5716710498616493    0.0059723415430375    0.9670421585608877
    0.8184685156393066    0.0000000000000000    -0.5729362832156610    0.0054705821640512    0.8607865084439780
    0.8191520442889768    0.0000000000000000    -0.5735764363510452    -0.0012385075419381    -1.6973277025668132
    0.8193006839898231    0.0000000000000000    -0.5736763164807996    -0.0012385075419381    -1.6973277025668132
    0.8181543598492844    0.0000000000000000    -0.5736703528907210    -0.0074071858478449    0.8481662927117738
    0.8163316617080234    0.0000000000000000    -0.5732013404042497    -0.0072976777750552    0.9537232667620924
    0.8142313732185578    0.0000000000000000    -0.5724981864259640    -0.0066327484244388    0.9726623040893008
    0.8120597979658157    0.0000000000000000    -0.5716780050103019    -0.0050469990100347    0.9821274582842219
    0.8097543571266748    0.0000000000000000    -0.5707446556236349    -0.0038729797686636    0.9871884948705538
    0.8072226944457270    0.0000000000000000    -0.5696706767692525    -0.0030545884120720    0.9903244379921551