VARIABLES = "X" "Y" "Z" "OrthoChange" "Orthogonality"
ZONE T="C2_R30"    I=257    J=129    K=1    F=POINT
    0.8191520442778710    0.0000000000000000    -0.5735764363489579    -0.0000066689746498    -1.6960958639995249
    0.8183167181341560    0.0000000000000000    -0.5731530725361154    -0.0000201006344556    0.8555533779251632
    0.8166655255699879    0.0000000000000000    -0.5723157559441461    -0.0000224300151401    0.9609985145220075
    0.8147100326677901    0.0000000000000000    -0.5713232933030667    -0.0000199011438858    0.9792751513698538
    0.8126627748570172    0.0000000000000000    -0.5702832502956880    -0.0000161352427219    0.9871583220515346
    0.8104657017538557    0.0000000000000000    -0.5691659888498179    -0.0000134956034938    0.9910479790357236
    0.8080319726432208    0.0000000000000000    -0.5679270798864309    -0.0000117623773546    0.9933672640268725
    0.8053207491102512    0.0000000000000000    -0.5665452460334564    -0.0000104536303522    0.9949977522900163
    0.8023216213332489    0.0000000000000000    -0.5650146745147140    -0.0000093878125498    0.9961769583934279
    0.7990347549857688    0.0000000000000000    -0.5633348167630174    -0.0000084290026177    0.9970478484984544
    0.7954627975705080    0.0000000000000000    -0.5615064643025107    -0.0000077529249565    0.9976327752626282
    0.7916091312799836    0.0000000000000000    -0.5595306060813527    -0.0000074107400773    0.9980294943467560
    0.7874774562151288    0.0000000000000000    -0.5574084008712816    -0.0000070724464016    0.9983347963425805
    0.7830717254546471    0.0000000000000000    -0.5551411654250842    -0.0000067501282894    0.9985819240448418
    0.7783961785535212    0.0000000000000000    -0.5527303271537676    -0.0000064985034880    0.9987718408184765
    0.7734552034162334    0.0000000000000000    -0.5501773093828888    -0.0000063231915861    0.9989221538077998
    0.7682535681815352    0.0000000000000000    -0.5474837198107707    -0.0000061820392662    0.9990443428118715
    0.7627961346079246    0.0000000000000000    -0.5446513442466312    -0.0000060659884268    0.9991436823524957
    0.7570880489583942    0.0000000000000000    -0.5416818738467555    -0.0000059751137259    0.9992291247459699
    0.7511344880622346    0.0000000000000000    -0.5385772678519061    -0.0000059022270429    0.9993032128015087
    0.7449411127308849    0.0000000000000000    -0.5353395219199228    -0.0000058388910503    0.9993666449121267
    0.7385135002477909    0.0000000000000000    -0.5319707507096609    -0.0000057716908881    0.9994246158766948
    0.7318575115859858    0.0000000000000000    -0.5284730797629891    -0.0000057165012566    0.9994751474107766
    0.7249791268332046    0.0000000000000000    -0.5248488796778474    -0.0000056635953153    0.9995212143137592
    0.7178845487287617    0.0000000000000000    -0.5211005153150836    -0.0000055900926247    0.9995631117716020
    0.7105799216296873    0.0000000000000000    -0.5172304346770034    -0.0000055303816220    0.9996018895689902
    0.7030717903398909    0.0000000000000000    -0.5132411375479933    -0.0000054586062924    0.9996368645657487
    0.6953665407199878    0.0000000000000000    -0.5091353502948550    -0.0000053927855138    0.9996691220095585
    0.6874709139810875    0.0000000000000000    -0.5049157079338329    -0.0000053157177433    0.9996986396879491
    0.6793915123125771    0.0000000000000000    -0.5005850438292327    -0.0000052415268937    0.9997259895463420
    0.6711352762795286    0.0000000000000000    -0.4961461236453033    -0.0000051503558343    0.9997514322677087
    0.6627090266556479    0.0000000000000000    -0.4916019883066838    -0.0000050620378238    0.9997742577919301
    0.6541197261103662    0.0000000000000000    -0.4869554758024606    -0.0000049614860100    0.9997960396524049
    0.6453744355603703    0.0000000000000000    -0.4822096997286281    -0.0000048679324174    0.9998151920568616
    0.6364802022144431    0.0000000000000000    -0.4773676891463765    -0.0000047500799527    0.9998337730010038
    0.6274441222776659    0.0000000000000000    -0.4724325072793362    -0.0000046564936047    0.9998500764008917
    0.6182734251124202    0.0000000000000000    -0.4674074426375227    -0.0000045303128704    0.9998657869318107
    0.6089752538391622    0.0000000000000000    -0.4622954913029389    -0.0000044164469847    0.9998800805097029
    0.5995568899597856    0.0000000000000000    -0.4570999714023855    -0.0000042959074216    0.9998928643194309
    0.5900255332744564    0.0000000000000000    -0.4518241097512146    -0.0000041713506118    0.9999046946733374
    0.5803884901906713    0.0000000000000000    -0.4464710849879338    -0.0000040335832423    0.9999155490748244
    0.5706529793751542    0.0000000000000000    -0.4410442008584141    -0.0000038931421593    0.9999253335240699
    0.5608262093155645    0.0000000000000000    -0.4355466720026016    -0.0000037640717666    0.9999343635936442
    0.5509155287436442    0.0000000000000000    -0.4299817203745988    -0.0000036181330584    0.9999425981603042
    0.5409281161701074    0.0000000000000000    -0.4243526033433226    -0.0000034644817427    0.9999500186722928
    0.5308711860634503    0.0000000000000000    -0.4186626307582628    -0.0000033238083257    0.9999566082889854
    0.5207519876494189    0.0000000000000000    -0.4129148548818193    -0.0000031738946166    0.9999625049114538
    0.5105776738637360    0.0000000000000000    -0.4071125696900708    -0.0000030201225883    0.9999677940319066
    0.5003553998831194    0.0000000000000000    -0.4012589617423146    -0.0000028663394713    0.9999722876625668
    0.4900921786320396    0.0000000000000000    -0.3953572132768385    -0.0000027053651329    0.9999763487434060
    0.4797951894797734    0.0000000000000000    -0.3894102685198960    -0.0000025366353643    0.9999799496288120
    0.4694713960489025    0.0000000000000000    -0.3834213799373174    -0.0000023727879338    0.9999828754168421
    0.4591277351428289    0.0000000000000000    -0.3773935264835017    -0.0000022095078682    0.9999852064459797
    0.4487710943794809    0.0000000000000000    -0.3713297573413001    -0.0000020328684441    0.9999872366436517
    0.4384083828190342    0.0000000000000000    -0.3652330911863828    -0.0000018509758155    0.9999887233196734
    0.4280463655304629    0.0000000000000000    -0.3591063366693562    -0.0000016739653300    0.9999897056499160
    0.4176917048753239    0.0000000000000000    -0.3529524489449614    -0.0000015972142743    0.9999902278788233
    0.4073511590686394    0.0000000000000000    -0.3467743501996665    -0.0000014887851455    0.9999904093857820
    0.3970311466837302    0.0000000000000000    -0.3405748246523218    -0.0000014372547303    0.9999901607302434
    0.3867382750104298    0.0000000000000000    -0.3343566980374817    -0.0000013525491405    0.9999896211312674
    0.3764788648768445    0.0000000000000000    -0.3281226861718097    -0.0000012773422272    0.9999885795309468
    0.3662593155459036    0.0000000000000000    -0.3218754963672837    -0.0000011076821813    0.9999872064796337
    0.3560857701741043    0.0000000000000000    -0.3156178383096631    -0.0000009555220852    0.9999856587855654
    0.3459644370523166    0.0000000000000000    -0.3093522764629598    -0.0000007329054759    0.9999837384794263
    0.3359013168301317    0.0000000000000000    -0.3030815162092040    -0.0000004390579680    0.9999813926687009
    0.3259024234212120    0.0000000000000000    -0.2968080359205487    -0.0000001023975912    0.9999785863927807
    0.3159735235385597    0.0000000000000000    -0.2905344591699759    0.0000002120592594    0.9999753591888522
    0.3061203907709569    0.0000000000000000    -0.2842632960228003    0.0000004946470175    0.9999717707260328
    0.2963486389271566    0.0000000000000000    -0.2779970766541737    0.0000007769514270    0.9999677625583833
    0.2866638099512784    0.0000000000000000    -0.2717382262426327    0.0000010371880756    0.9999634607202009
    0.2770712879064376    0.0000000000000000    -0.2654892914142692    0.0000013007117743    0.9999587646352471
    0.2675763680381351    0.0000000000000000    -0.2592526338476090    0.0000015625479958    0.9999536822209310
    0.2581842121944646    0.0000000000000000    -0.2530307537281260    0.0000018072894650    0.9999482363781474
    0.2488998967164662    0.0000000000000000    -0.2468260139457925    0.0000020612864532    0.9999423744733273
    0.2397283697137026    0.0000000000000000    -0.2406408560573254    0.0000023284756642    0.9999360384739744
    0.2306744574671029    0.0000000000000000    -0.2344776361787808    0.0000025819691774    0.9999294120235954
    0.2217427911600680    0.0000000000000000    -0.2283388330843081    0.0000028619590409    0.9999221197613295
    0.2129379842881462    0.0000000000000000    -0.2222267949118759    0.0000031330400554    0.9999145434510662
    0.2042643893801141    0.0000000000000000    -0.2161439826941204    0.0000034208670225    0.9999063379350149
    0.1957263571675867    0.0000000000000000    -0.2100927561386925    0.0000037027410489    0.9998975121938140
    0.1873280201616581    0.0000000000000000    -0.2040755268017165    0.0000040019154918    0.9998882781026104
    0.1790734502064879    0.0000000000000000    -0.1980947410429507    0.0000043277688474    0.9998783907826085
    0.1709664853406139    0.0000000000000000    -0.1921527633539881    0.0000046279057216    0.9998678340573328
    0.1630109451361932    0.0000000000000000    -0.1862520363865770    0.0000049518887947    0.9998563988249766
    0.1552105327427853    0.0000000000000000    -0.1803948575015966    0.0000052949422856    0.9998444279836199
    0.1475687157071661    0.0000000000000000    -0.1745837046919405    0.0000056400340642    0.9998315530375522
    0.1400887977360980    0.0000000000000000    -0.1688210821903340    0.0000059928406307    0.9998174784469028
    0.1327739946136717    0.0000000000000000    -0.1631094374188251    0.0000063780914716    0.9998030392853526
    0.1256274137267610    0.0000000000000000    -0.1574511915778202    0.0000067492082563    0.9997872205745699
    0.1186519973489340    0.0000000000000000    -0.1518488189149138    0.0000071646228547    0.9997698043428001
    0.1118507881983533    0.0000000000000000    -0.1463044952461132    0.0000075672763055    0.9997515446383898
    0.1052262945668190    0.0000000000000000    -0.1408208729862963    0.0000079860383514    0.9997313538812349
    0.0987810768274357    0.0000000000000000    -0.1354004269560392    0.0000084805549244    0.9997102023476800
    0.0925175468000816    0.0000000000000000    -0.1300456099816074    0.0000089479082961    0.9996867233511133
    0.0864380464554415    0.0000000000000000    -0.1247587668403866    0.0000094839441959    0.9996609997899670
    0.0805449815743486    0.0000000000000000    -0.1195420732592538    0.0000099722857583    0.9996332332079979
    0.0748401527816895    0.0000000000000000    -0.1143982315970789    0.0000105827417871    0.9996026146369584
    0.0693254776997492    0.0000000000000000    -0.1093296079625361    0.0000111724043285    0.9995695483775913
    0.0640028049965622    0.0000000000000000    -0.1043385244529418    0.0000118499770352    0.9995318724769701
    0.0588741768224281    0.0000000000000000    -0.0994269614257064    0.0000124580948075    0.9994912512805637
    0.0539408122713212    0.0000000000000000    -0.0945975686900055    0.0000132591460434    0.9994460069550295
    0.0492041699544643    0.0000000000000000    -0.0898526274213509    0.0000139917110769    0.9993949450764891
    0.0446657822831185    0.0000000000000000    -0.0851941837954655    0.0000148857443250    0.9993380591921210
    0.0403271147879423    0.0000000000000000    -0.0806242235958052    0.0000156853774524    0.9992732916447723
    0.0361889885025448    0.0000000000000000    -0.0761451725547886    0.0000167093005402    0.9992027210557082
    0.0322524833100033    0.0000000000000000    -0.0717590603071585    0.0000176972440497    0.9991191413284373
    0.0285190478462027    0.0000000000000000    -0.0674674877836879    0.0000187065086098    0.9990261228863988
    0.0249893163127126    0.0000000000000000    -0.0632725953555564    0.0000198893202922    0.9989187243792393
    0.0216639685531845    0.0000000000000000    -0.0591763280608575    0.0000209695625933    0.9987954841640150
    0.0185440449567978    0.0000000000000000    -0.0551802010049869    0.0000223109815115    0.9986527204998493
    0.0156305445925682    0.0000000000000000    -0.0512856642781117    0.0000234167119023    0.9984833630411384
    0.0129237036526320    0.0000000000000000    -0.0474945566584211    0.0000247783664693    0.9982941631065939
    0.0104242296802113    0.0000000000000000    -0.0438082445780310    0.0000261394729131    0.9980611462157764
    0.0081336553557776    0.0000000000000000    -0.0402274715352178    0.0000271503233952    0.9977927044981990
    0.0060520834740600    0.0000000000000000    -0.0367537761512722    0.0000286013710177    0.9974737209726218
    0.0041803033382166    0.0000000000000000    -0.0333881453389040    0.0000294435248983    0.9970925774595535
    0.0025196390415659    0.0000000000000000    -0.0301312243291249    0.0000304941031811    0.9966351786834210
    0.0010718853591242    0.0000000000000000    -0.0269834830232867    0.0000304626036990    0.9960928272958887
    -0.0001620133916731    0.0000000000000000    -0.0239458101359559    0.0000306987819254    0.9954397679603784
    -0.0011799313870143    0.0000000000000000    -0.0210187095008223    0.0000297382568979    0.9946639264425706
    -0.0019791239246842    0.0000000000000000    -0.0182027864730117    0.0000276375823081    0.9937164428109606
    -0.0025558904380887    0.0000000000000000    -0.0154989392631250    0.0000248620689223    0.9925843015982609
    -0.0029056773782940    0.0000000000000000    -0.0129087987270395    0.0000204617999915    0.9912617871848536
    -0.0030240881387726    0.0000000000000000    -0.0104351648260490    0.0000153654832070    0.9897322620853738
    -0.0029058970467304    0.0000000000000000    -0.0080820946277527    0.0000100065086550    0.9880751017576654
    -0.0025463166530244    0.0000000000000000    -0.0058549287341521    0.0000051161171664    0.9864663488668149
    -0.0019419161253609    0.0000000000000000    -0.0037602841593980    0.0000009888453669    0.9852224228347666
    -0.0010924720772891    0.0000000000000000    -0.0018068666422550    -0.0000053223270228    0.9845888418454594
    -0.0000000000072757    0.0000000000000000    0.0000000000045200    -0.0000133488195608    0.9845718100799209
    0.0013242560962681    0.0000000000000000    0.0016445688661406    -0.0000205383461995    0.9845719903689401
    0.0028693371205009    0.0000000000000000    0.0031108963848964    -0.0000268585718149    0.9851954243718944
    0.0046309451354319    0.0000000000000000    0.0043952527148577    -0.0000305765154592    0.9864309725862918
    0.0066008097783197    0.0000000000000000    0.0054948877368588    -0.0000347498169330    0.9880301931310845
    0.0087715511181159    0.0000000000000000    0.0064107433818208    -0.0000389976614942    0.9896780342801245
    0.0111365025586565    0.0000000000000000    0.0071455117367805    -0.0000426249831023    0.9911985005755050
    0.0136900743018487    0.0000000000000000    0.0077026963626850    -0.0000453091943351    0.9925141675326516
    0.0164281238612603    0.0000000000000000    0.0080854877633101    -0.0000463776361336    0.9936424363398327
    0.0193475656196824    0.0000000000000000    0.0082975927989537    -0.0000467065452466    0.9945874791947884
    0.0224462884507375    0.0000000000000000    0.0083421927392919    -0.0000460600381145    0.9953628953508366
    0.0257227857800899    0.0000000000000000    0.0082216545943083    -0.0000445007502425    0.9960178870141899
    0.0291758560706512    0.0000000000000000    0.0079378020272998    -0.0000431513966305    0.9965615178913726
    0.0328043423287454    0.0000000000000000    0.0074912221652994    -0.0000410669674688    0.9970221527681816
    0.0366071879470837    0.0000000000000000    0.0068834418443658    -0.0000392078158552    0.9974058595251124
    0.0405833315890050    0.0000000000000000    0.0061154722880019    -0.0000370294938892    0.9977285099485783
    0.0447315809360589    0.0000000000000000    0.0051877438600058    -0.0000352670910648    0.9979996615371686
    0.0490504535409855    0.0000000000000000    0.0040997891819643    -0.0000333528211833    0.9982358261481944
    0.0535387216732488    0.0000000000000000    0.0028528362136058    -0.0000315367182450    0.9984285444839428
    0.0581948679391644    0.0000000000000000    0.0014470493497356    -0.0000299799447581    0.9986003302343628
    0.0630170758231543    0.0000000000000000    -0.0001179639284601    -0.0000283424599445    0.9987463187687337
    0.0680036459962139    0.0000000000000000    -0.0018417596429572    -0.0000269507392970    0.9988718449261271
    0.0731527913812897    0.0000000000000000    -0.0037238959221213    -0.0000255617108672    0.9989817824862405
    0.0784624608422746    0.0000000000000000    -0.0057643599993753    -0.0000243413649329    0.9990770781518207
    0.0839304157852893    0.0000000000000000    -0.0079633352743258    -0.0000231726493495    0.9991627388116102
    0.0895546759929857    0.0000000000000000    -0.0103199672375922    -0.0000220354851060    0.9992354741678156
    0.0953329473632039    0.0000000000000000    -0.0128339729672006    -0.0000210863477653    0.9993019676306865
    0.1012626724987058    0.0000000000000000    -0.0155053808148295    -0.0000200907053474    0.9993608750672305
    0.1073414901402430    0.0000000000000000    -0.0183334970524811    -0.0000192394547253    0.9994135182471839
    0.1135669384457287    0.0000000000000000    -0.0213176029246824    -0.0000183581295048    0.9994604355105390
    0.1199363964624354    0.0000000000000000    -0.0244570773056694    -0.0000176395801890    0.9995024834102139
    0.1264469356538030    0.0000000000000000    -0.0277517116646777    -0.0000168777060390    0.9995415358136118
    0.1330960181294358    0.0000000000000000    -0.0312002336149817    -0.0000162017787081    0.9995758566338487
    0.1398808123558410    0.0000000000000000    -0.0348017247688403    -0.0000155166622039    0.9996077232802900
    0.1467984498813167    0.0000000000000000    -0.0385551769959420    -0.0000149368378582    0.9996365818219817
    0.1538457667920738    0.0000000000000000    -0.0424598348108702    -0.0000143197610279    0.9996634698591083
    0.1610199022688903    0.0000000000000000    -0.0465141725062494    -0.0000137626337633    0.9996879695596081
    0.1683178496750770    0.0000000000000000    -0.0507167943187597    -0.0000131919849816    0.9997101593993157
    0.1757364771692665    0.0000000000000000    -0.0550662758159888    -0.0000126886802110    0.9997312762994012
    0.1832725856147591    0.0000000000000000    -0.0595610546179160    -0.0000121950828722    0.9997503534402459
    0.1909228267177241    0.0000000000000000    -0.0641996775420921    -0.0000116920643923    0.9997687476567503
    0.1986841111502145    0.0000000000000000    -0.0689800359459696    -0.0000112352240400    0.9997853320498836
    0.2065531137050129    0.0000000000000000    -0.0739002017744497    -0.0000107587762437    0.9998007262583105
    0.2145264859500458    0.0000000000000000    -0.0789580987011505    -0.0000103096241367    0.9998156427580621
    0.2226008408179041    0.0000000000000000    -0.0841515233842074    -0.0000098821488289    0.9998291723904775
    0.2307726845901925    0.0000000000000000    -0.0894782432114880    -0.0000094489811593    0.9998420369264048
    0.2390385049075121    0.0000000000000000    -0.0949358442603625    -0.0000090260479265    0.9998541813044270
    0.2473948849510634    0.0000000000000000    -0.1005216202693191    -0.0000086294697736    0.9998654352514628
    0.2558382122733747    0.0000000000000000    -0.1062328325915587    -0.0000082070596883    0.9998762136920428
    0.2643649629899301    0.0000000000000000    -0.1120666681163129    -0.0000078157684714    0.9998859943339667
    0.2729714284505462    0.0000000000000000    -0.1180201617407874    -0.0000074354381487    0.9998954815157030
    0.2816539570994791    0.0000000000000000    -0.1240902153012940    -0.0000070517689591    0.9999043505752273
    0.2904088006107485    0.0000000000000000    -0.1302736085535799    -0.0000066802655344    0.9999125914746956
    0.2992322133795824    0.0000000000000000    -0.1365670137984125    -0.0000063020596218    0.9999205145374770
    0.3081203488618484    0.0000000000000000    -0.1429669874005412    -0.0000059484794915    0.9999277745067086
    0.3170693622014369    0.0000000000000000    -0.1494699275726817    -0.0000055818702717    0.9999347188230314
    0.3260753120121080    0.0000000000000000    -0.1560722148924470    -0.0000052298063501    0.9999412050163533
    0.3351342946989462    0.0000000000000000    -0.1627699155433220    -0.0000048841279731    0.9999472286943877
    0.3442422683001496    0.0000000000000000    -0.1695591896850601    -0.0000045213397639    0.9999529534738754
    0.3533952012294321    0.0000000000000000    -0.1764359228418471    -0.0000041579795845    0.9999582544486245
    0.3625889820323209    0.0000000000000000    -0.1833960627582200    -0.0000037978845624    0.9999631979299191
    0.3718194594111993    0.0000000000000000    -0.1904353020636335    -0.0000034157010934    0.9999678500241092
    0.3810823736494058    0.0000000000000000    -0.1975493846111931    -0.0000030332465196    0.9999721233654310
    0.3903735125422827    0.0000000000000000    -0.2047337784069896    -0.0000026184923040    0.9999760606603048
    0.3996884573280113    0.0000000000000000    -0.2119840386667420    -0.0000021816318265    0.9999796582809003
    0.4090228577988456    0.0000000000000000    -0.2192955186383187    -0.0000017817351291    0.9999827149705096
    0.4183722383822897    0.0000000000000000    -0.2266635428031805    -0.0000014627700662    0.9999851509517429
    0.4277320901892381    0.0000000000000000    -0.2340832757654425    -0.0000012121841877    0.9999870997545373
    0.4370977986618527    0.0000000000000000    -0.2415498765994926    -0.0000009440196687    0.9999889168521252
    0.4464647935528774    0.0000000000000000    -0.2490583896569660    -0.0000007742709014    0.9999901956734257
    0.4558282800135203    0.0000000000000000    -0.2566038158902302    -0.0000005972509860    0.9999910043437913
    0.4651835912882234    0.0000000000000000    -0.2641810775639897    -0.0000004567386568    0.9999914379616970
    0.4745257692629821    0.0000000000000000    -0.2717849930977536    -0.0000002597124731    0.9999915689105898
    0.4838500389887486    0.0000000000000000    -0.2794104316344601    -0.0000000965313149    0.9999912827338803
    0.4931513257834013    0.0000000000000000    -0.2870520663436765    0.0000001678510503    0.9999907386890594
    0.5024245697641163    0.0000000000000000    -0.2947046533736284    0.0000004376697843    0.9999897100978249
    0.5116648371840711    0.0000000000000000    -0.3023627688626221    0.0000007006969579    0.9999881139284168
    0.5208668474660954    0.0000000000000000    -0.3100209644899223    0.0000009586897987    0.9999862445931565
    0.5300255730835488    0.0000000000000000    -0.3176738462498178    0.0000011969431847    0.9999836823398836
    0.5391356402542442    0.0000000000000000    -0.3253158913475999    0.0000014471647921    0.9999805021468405
    0.5481917088254704    0.0000000000000000    -0.3329416325159400    0.0000016878004777    0.9999768398580501
    0.5571885117897182    0.0000000000000000    -0.3405453943551038    0.0000019196208404    0.9999727353706372
    0.5661207009034115    0.0000000000000000    -0.3481216174313885    0.0000021503438292    0.9999678297127566
    0.5749828131374670    0.0000000000000000    -0.3556646983588507    0.0000023753025130    0.9999623073998241
    0.5837693089633831    0.0000000000000000    -0.3631690392194287    0.0000025885228629    0.9999560727646321
    0.5924748535762774    0.0000000000000000    -0.3706288535258864    0.0000028145517397    0.9999490292808308
    0.6010938435138087    0.0000000000000000    -0.3780385305353775    0.0000030289450875    0.9999411559588676
    0.6096207926966599    0.0000000000000000    -0.3853923960241445    0.0000032245227928    0.9999324541255007
    0.6180501278358861    0.0000000000000000    -0.3926846921840479    0.0000034304804861    0.9999230076641447
    0.6263763928436674    0.0000000000000000    -0.3999097020860063    0.0000036315623417    0.9999125024716180
    0.6345939939346863    0.0000000000000000    -0.4070618012401610    0.0000038152314592    0.9999009705597196
    0.6426974493660964    0.0000000000000000    -0.4141352049800843    0.0000039941016525    0.9998884955506975
    0.6506812891238951    0.0000000000000000    -0.4211242162255076    0.0000041641925679    0.9998744781163956
    0.6585398588649696    0.0000000000000000    -0.4280231930861191    0.0000043301665538    0.9998592769147855
    0.6662679374203435    0.0000000000000000    -0.4348263945394137    0.0000044900734381    0.9998426033784119
    0.6738599449236062    0.0000000000000000    -0.4415281763140228    0.0000046527114865    0.9998247032576715
    0.6813105800974881    0.0000000000000000    -0.4481229118364354    0.0000047902637725    0.9998057901107112
    0.6886145960015710    0.0000000000000000    -0.4546050010876570    0.0000049336281809    0.9997842540871955
    0.6957666217858787    0.0000000000000000    -0.4609689166645695    0.0000050603816845    0.9997616393708337
    0.7027616435152595    0.0000000000000000    -0.4672090375534026    0.0000051882339110    0.9997364273689398
    0.7095944611864979    0.0000000000000000    -0.4733200082046096    0.0000052959247677    0.9997092578061979
    0.7162600859446684    0.0000000000000000    -0.4792962753253960    0.0000054041557052    0.9996799180304708
    0.7227536220307229    0.0000000000000000    -0.4851325688705401    0.0000054972061997    0.9996478141644866
    0.7290702565442189    0.0000000000000000    -0.4908234997847103    0.0000055927316821    0.9996130158223006
    0.7352052771457238    0.0000000000000000    -0.4963639515381146    0.0000056760520488    0.9995743752549168
    0.7411540825269185    0.0000000000000000    -0.5017486489405201    0.0000057680211907    0.9995326496837933
    0.7469122483307729    0.0000000000000000    -0.5069726874608023    0.0000058366372918    0.9994866880225397
    0.7524754709374974    0.0000000000000000    -0.5120309901567452    0.0000059062856083    0.9994363064752160
    0.7578394602751359    0.0000000000000000    -0.5169187726332893    0.0000059829826439    0.9993784660961362
    0.7630001962461392    0.0000000000000000    -0.5216312804004701    0.0000060564131670    0.9993151654750678
    0.7679538178563234    0.0000000000000000    -0.5261639476238997    0.0000061269308383    0.9992420172617587
    0.7726964843895985    0.0000000000000000    -0.5305121794845036    0.0000062286637201    0.9991559814959233
    0.7772245910236961    0.0000000000000000    -0.5346717715165141    0.0000063374125722    0.9990578171620458
    0.7815348149379133    0.0000000000000000    -0.5386384284047381    0.0000064870781343    0.9989350003866330
    0.7856237785454141    0.0000000000000000    -0.5424082446688772    0.0000066609214708    0.9987849879323065
    0.7894883521221345    0.0000000000000000    -0.5459772728136159    0.0000069048695442    0.9985955857603951
    0.7931257124364492    0.0000000000000000    -0.5493418549885973    0.0000072146095607    0.9983518967066577
    0.7965330445804284    0.0000000000000000    -0.5524985291276607    0.0000075298131448    0.9980444333320611
    0.7997077731852187    0.0000000000000000    -0.5554440108107883    0.0000078463246412    0.9976484088054586
    0.8026475488222786    0.0000000000000000    -0.5581752124335253    0.0000084925872965    0.9970647679922183
    0.8053502667535213    0.0000000000000000    -0.5606893206295354    0.0000093928636845    0.9961957031936161
    0.8078143018137780    0.0000000000000000    -0.5629840836645599    0.0000103729409592    0.9950185772129914
    0.8100400926559814    0.0000000000000000    -0.5650591872945370    0.0000115462587349    0.9933906809525663
    0.8120366719522281    0.0000000000000000    -0.5669224109205970    0.0000130690516953    0.9910744465967966
    0.8138379993251874    0.0000000000000000    -0.5686048558227412    0.0000153813551134    0.9871745095036295
    0.8155155244239722    0.0000000000000000    -0.5701729318334401    0.0000184646700425    0.9793010309432935
    0.8171169536144589    0.0000000000000000    -0.5716710498600150    0.0000197276877869    0.9610895447056371
    0.8184685156447813    0.0000000000000000    -0.5729362832134939    0.0000192546848529    0.8553351809647797
    0.8191520442778710    0.0000000000000000    -0.5735764363489579    -0.0000066689746498    -1.6960958639995249
    0.8192996090219822    0.0000000000000000    -0.5736797262294058    -0.0000066689746498    -1.6960958639995249
    0.8181516485492466    0.0000000000000000    -0.5736758588300290    -0.0000201006344556    0.8555533779251632
    0.8163230344944168    0.0000000000000000    -0.5732247355617801    -0.0000224300151401    0.9609985145220075
    0.8142139347692137    0.0000000000000000    -0.5725469526114466    -0.0000199011438858    0.9792751513698538
    0.8120316116546746    0.0000000000000000    -0.5717579068314080    -0.0000161352427219    0.9871583220515346
    0.8097135226198588    0.0000000000000000    -0.5708611873815244    -0.0000134956034938    0.9910479790357236
    0.8071666833056952    0.0000000000000000    -0.5698311161722813    -0.0000117623773546    0.9933672640268725
    0.8043467690440593    0.0000000000000000    -0.5686505635712820    -0.0000104536303522    0.9949977522900163