VARIABLES = "X" "Y" "Z" "OrthoChange" "Orthogonality"
ZONE T="C4_R5"    I=257    J=129    K=1    F=POINT
    0.8191520437831059    0.0000000000000000    -0.5735764360870235    -0.0000388035168224    -1.6961279985416975
    0.8183167182141915    0.0000000000000000    -0.5731530726334313    -0.0000280486729469    0.8555454298866718
    0.8166655260138214    0.0000000000000000    -0.5723157557076775    -0.0000454914742974    0.9609754530628501
    0.8147100332425907    0.0000000000000000    -0.5713232933776453    -0.0000393298414842    0.9792557226722554
    0.8126627744641155    0.0000000000000000    -0.5702832501265220    -0.0000265078506738    0.9871479494435828
    0.8104657016228884    0.0000000000000000    -0.5691659889125731    -0.0000181385060903    0.9910433361331271
    0.8080319726141170    0.0000000000000000    -0.5679270797700156    -0.0000128294794364    0.9933661969247907
    0.8053207494085655    0.0000000000000000    -0.5665452462853864    -0.0000092349528567    0.9949989709675119
    0.8023216211004183    0.0000000000000000    -0.5650146741536446    -0.0000063845755326    0.9961799616304451
    0.7990347549784929    0.0000000000000000    -0.5633348167466465    -0.0000039741067909    0.9970523033942812
    0.7954627972794697    0.0000000000000000    -0.5615064644662198    -0.0000027042714776    0.9976378239161070
    0.7916091318475083    0.0000000000000000    -0.5595306062896270    -0.0000017136923626    0.9980351913944707
    0.7874774559168145    0.0000000000000000    -0.5574084008403588    -0.0000008909998181    0.9983409777891640
    0.7830717245815322    0.0000000000000000    -0.5551411651831586    -0.0000002485812403    0.9985884255918910
    0.7783961782697588    0.0000000000000000    -0.5527303275302984    0.0000002828825224    0.9987786222044869
    0.7734552031615749    0.0000000000000000    -0.5501773092837539    0.0000006292990566    0.9989291062984426
    0.7682535676285625    0.0000000000000000    -0.5474837200017646    0.0000009121021778    0.9990514369533154
    0.7627961349207908    0.0000000000000000    -0.5446513445931487    0.0000010948874524    0.9991508432283749
    0.7570880490820855    0.0000000000000000    -0.5416818737576250    0.0000012849440031    0.9992363848036989
    0.7511344878003001    0.0000000000000000    -0.5385772678419016    0.0000013919298085    0.9993105069583601
    0.7449411120032892    0.0000000000000000    -0.5353395219426602    0.0000015181229671    0.9993740019261441
    0.7385134998476133    0.0000000000000000    -0.5319707505987026    0.0000015499200033    0.9994319374875863
    0.7318575117969885    0.0000000000000000    -0.5284730799903627    0.0000016146922341    0.9994824786042673
    0.7249791279900819    0.0000000000000000    -0.5248488798679318    0.0000016084831785    0.9995284863922530
    0.7178845478920266    0.0000000000000000    -0.5211005150631536    0.0000015580452677    0.9995702599094943
    0.7105799216078594    0.0000000000000000    -0.5172304348379839    0.0000015132152609    0.9996089331658731
    0.7030717894667760    0.0000000000000000    -0.5132411376689561    0.0000014058946629    0.9996437290667041
    0.6953665401088074    0.0000000000000000    -0.5091353500320110    0.0000013207476707    0.9996758355427430
    0.6874709146795794    0.0000000000000000    -0.5049157080065925    0.0000011572653148    0.9997051126710073
    0.6793915114831179    0.0000000000000000    -0.5005850438610651    0.0000010165824893    0.9997322476557250
    0.6711352766724303    0.0000000000000000    -0.4961461239436176    0.0000008334105949    0.9997574160341378
    0.6627090268302709    0.0000000000000000    -0.4916019885858987    0.0000006347846654    0.9997799546144193
    0.6541197273181751    0.0000000000000000    -0.4869554756442085    0.0000004052458511    0.9998014063842661
    0.6453744353493676    0.0000000000000000    -0.4822096994030290    0.0000001658628753    0.9998202258521544
    0.6364802017342299    0.0000000000000000    -0.4773676892218646    -0.0000000844657692    0.9998384386151874
    0.6274441217537969    0.0000000000000000    -0.4724325072602368    -0.0000003251292860    0.9998544077652104
    0.6182734250323847    0.0000000000000000    -0.4674074424547143    -0.0000005852021738    0.9998697320425073
    0.6089752542320639    0.0000000000000000    -0.4622954916267190    -0.0000008053893621    0.9998836915673255
    0.5995568897342309    0.0000000000000000    -0.4570999714487697    -0.0000010552264733    0.9998961050003792
    0.5900255331071094    0.0000000000000000    -0.4518241097684950    -0.0000012889600566    0.9999075770638927
    0.5803884902270511    0.0000000000000000    -0.4464710849861148    -0.0000015484656331    0.9999180341924336
    0.5706529787275940    0.0000000000000000    -0.4410442008520477    -0.0000017909919634    0.9999274356742658
    0.5608262090245262    0.0000000000000000    -0.4355466720298864    -0.0000019621879727    0.9999361654774381
    0.5509155286708847    0.0000000000000000    -0.4299817205464933    -0.0000021518136288    0.9999440644797337
    0.5409281167667359    0.0000000000000000    -0.4243526034115347    -0.0000023252730230    0.9999511578810125
    0.5308711855905131    0.0000000000000000    -0.4186626307491679    -0.0000024474405953    0.9999574846567157
    0.5207519871182740    0.0000000000000000    -0.4129148546489886    -0.0000025574104423    0.9999631213956280
    0.5105776737909764    0.0000000000000000    -0.4071125696937088    -0.0000026304246495    0.9999681837298454
    0.5003553997958079    0.0000000000000000    -0.4012589620833751    -0.0000026998657030    0.9999724541363352
    0.4900921791559085    0.0000000000000000    -0.3953572136233560    -0.0000027207910032    0.9999763333175358
    0.4797951888758689    0.0000000000000000    -0.3894102682825178    -0.0000027156514821    0.9999797706126942
    0.4694713964127004    0.0000000000000000    -0.3834213800437283    -0.0000026770991677    0.9999825711056082
    0.4591277345316485    0.0000000000000000    -0.3773935265489853    -0.0000026289353338    0.9999847870185141
    0.4487710949033499    0.0000000000000000    -0.3713297575013711    -0.0000025309150358    0.9999867385970601
    0.4384083834011108    0.0000000000000000    -0.3652330911718309    -0.0000024144420289    0.9999881598534600
    0.4280463646864519    0.0000000000000000    -0.3591063364292496    -0.0000022524007263    0.9999891272145197
    0.4176917044678703    0.0000000000000000    -0.3529524490586482    -0.0000019186623503    0.9999899064307473
    0.4073511587921530    0.0000000000000000    -0.3467743502114899    -0.0000016455745833    0.9999902525963442
    0.3970311468001455    0.0000000000000000    -0.3405748245713767    -0.0000012789468607    0.9999903190381130
    0.3867382755270228    0.0000000000000000    -0.3343566981493496    -0.0000009666514332    0.9999900070289747
    0.3764788648113608    0.0000000000000000    -0.3281226860708558    -0.0000006210219202    0.9999892358512538
    0.3662593157496304    0.0000000000000000    -0.3218754967383575    -0.0000003678565725    0.9999879463052425
    0.3560857695993037    0.0000000000000000    -0.3156178382632788    -0.0000000695069344    0.9999865448007162
    0.3459644371178002    0.0000000000000000    -0.3093522764975206    0.0000002081510488    0.9999846795359510
    0.3359013159060851    0.0000000000000000    -0.3030815160600469    0.0000004468334592    0.9999822785601281
    0.3259024242870510    0.0000000000000000    -0.2968080362188630    0.0000006906500047    0.9999793794403766
    0.3159735230728984    0.0000000000000000    -0.2905344589962624    0.0000009712738326    0.9999761184034254
    0.3061203909455799    0.0000000000000000    -0.2842632960819174    0.0000012843642493    0.9999725604432647
    0.2963486395892687    0.0000000000000000    -0.2779970767442136    0.0000016167302973    0.9999686023372536
    0.2866638100822456    0.0000000000000000    -0.2717382263799664    0.0000019637755088    0.9999643873076340
    0.2770712880301289    0.0000000000000000    -0.2654892914288212    0.0000023150434986    0.9999597789669714
    0.2675763685256243    0.0000000000000000    -0.2592526340158656    0.0000026751137059    0.9999547947866411
    0.2581842121435329    0.0000000000000000    -0.2530307538399938    0.0000030423743342    0.9999494714630167
    0.2488998966291547    0.0000000000000000    -0.2468260139867197    0.0000034077604751    0.9999437209473493
    0.2397283687605522    0.0000000000000000    -0.2406408558890689    0.0000037728590248    0.9999374828573350
    0.2306744576198980    0.0000000000000000    -0.2344776361715049    0.0000041285243200    0.9999309585787380
    0.2217427915311418    0.0000000000000000    -0.2283388333453331    0.0000044852168369    0.9999237430191256
    0.2129379841499030    0.0000000000000000    -0.2222267949255183    0.0000048273150942    0.9999162377261051
    0.2042643892345949    0.0000000000000000    -0.2161439828050788    0.0000051619735729    0.9999080790415653
    0.1957263585063629    0.0000000000000000    -0.2100927566643805    0.0000054998804762    0.9998993093332412
    0.1873280203435571    0.0000000000000000    -0.2040755266789347    0.0000058172257796    0.9998900934128983
    0.1790734493406489    0.0000000000000000    -0.1980947407719213    0.0000061312526927    0.9998801942664538
    0.1709664850495756    0.0000000000000000    -0.1921527636586688    0.0000064211848509    0.9998696273364621
    0.1630109447287395    0.0000000000000000    -0.1862520361610223    0.0000067177657780    0.9998581647019599
    0.1552105331211351    0.0000000000000000    -0.1803948577435222    0.0000069886341643    0.9998461216754986
    0.1475687156780623    0.0000000000000000    -0.1745837048219982    0.0000072645335059    0.9998331775369939
    0.1400887977215461    0.0000000000000000    -0.1688210823049303    0.0000075254848881    0.9998190110911602
    0.1327739942935296    0.0000000000000000    -0.1631094375916291    0.0000077564393901    0.9998044176332711
    0.1256274143815972    0.0000000000000000    -0.1574511918006464    0.0000079865200232    0.9997884578863369
    0.1186519964248874    0.0000000000000000    -0.1518488188157789    0.0000082063476595    0.9997708460676049
    0.1118507880601101    0.0000000000000000    -0.1463044950796757    0.0000084162636103    0.9997523936256946
    0.1052262953598983    0.0000000000000000    -0.1408208729117177    0.0000086021022936    0.9997319699451771
    0.0987810769584030    0.0000000000000000    -0.1354004270688166    0.0000087843673593    0.9997105061601149
    0.0925175467273220    0.0000000000000000    -0.1300456100143492    0.0000089517984857    0.9996867272413029
    0.0864380469429307    0.0000000000000000    -0.1247587671678047    0.0000091098561658    0.9996606257019369
    0.0805449816398322    0.0000000000000000    -0.1195420735748485    0.0000092602824305    0.9996325212046702
    0.0748401529272087    0.0000000000000000    -0.1143982316716574    0.0000094123175636    0.9996014442127349
    0.0693254778743722    0.0000000000000000    -0.1093296080944129    0.0000095386701355    0.9995679146433983
    0.0640028050402179    0.0000000000000000    -0.1043385247176047    0.0000096882559271    0.9995297107558619
    0.0588741766987368    0.0000000000000000    -0.0994269613584038    0.0000097881184441    0.9994885813042003
    0.0539408114855178    0.0000000000000000    -0.0945975685026496    0.0000098855351721    0.9994426333441582
    0.0492041698889806    0.0000000000000000    -0.0898526275705080    0.0000099800472138    0.9993909334126260
    0.0446657807915472    0.0000000000000000    -0.0851941832806915    0.0000101111788725    0.9993332846266686
    0.0403271151590161    0.0000000000000000    -0.0806242240068968    0.0000102126932027    0.9992678189605225
    0.0361889882478863    0.0000000000000000    -0.0761451725556981    0.0000103247614542    0.9991963365166222
    0.0322524841176346    0.0000000000000000    -0.0717590606072918    0.0000104250324499    0.9991118691168375
    0.0285190481226891    0.0000000000000000    -0.0674674878537189    0.0000105157727313    0.9990179321505203
    0.0249893153668381    0.0000000000000000    -0.0632725950563326    0.0000106178230761    0.9989094528820233
    0.0216639683349058    0.0000000000000000    -0.0591763280972373    0.0000106824741732    0.9987851970755949
    0.0185440449859016    0.0000000000000000    -0.0551802010159008    0.0000108176657483    0.9986412271840861
    0.0156305445707403    0.0000000000000000    -0.0512856646091677    0.0000108829004088    0.9984708292296449
    0.0129237038199790    0.0000000000000000    -0.0474945564928931    0.0000109996436344    0.9982803843837590
    0.0104242306551896    0.0000000000000000    -0.0438082451582886    0.0000111271454614    0.9980461338883246
    0.0081336557050236    0.0000000000000000    -0.0402274715888780    0.0000111525856014    0.9977767067604052
    0.0060520832776092    0.0000000000000000    -0.0367537762213033    0.0000111946817131    0.9974563142833172
    0.0041803038329817    0.0000000000000000    -0.0333881456463132    0.0000112509763068    0.9970743849109620
    0.0025196397909895    0.0000000000000000    -0.0301312244846485    0.0000112433218609    0.9966159279021007
    0.0010718860430642    0.0000000000000000    -0.0269834833743516    0.0000110375579172    0.9960734022501069
    -0.0001620141556486    0.0000000000000000    -0.0239458100404590    0.0000108424390439    0.9954199116174969
    -0.0011799307540059    0.0000000000000000    -0.0210187096672598    0.0000104782178985    0.9946446664035712
    -0.0019791238009929    0.0000000000000000    -0.0182027866831050    0.0000099094916006    0.9936987147202532
    -0.0025558911729604    0.0000000000000000    -0.0154989389120601    0.0000088125490028    0.9925682520783414
    -0.0029056769562885    0.0000000000000000    -0.0129087988170795    0.0000080698947580    0.9912493952796201
    -0.0030240879277698    0.0000000000000000    -0.0104351648187731    0.0000065034340395    0.9897234000362063
    -0.0029058968648315    0.0000000000000000    -0.0080820946895983    0.0000053507215141    0.9880704459705245
    -0.0025463167112321    0.0000000000000000    -0.0058549286331981    0.0000036654541524    0.9864648982038010
    -0.0019419165910222    0.0000000000000000    -0.0037602841330226    0.0000028055615753    0.9852242395509749
    -0.0010924724338111    0.0000000000000000    -0.0018068670178763    0.0000012605035673    0.9845954246760494
    -0.0000000008149070    0.0000000000000000    0.0000000000872840    -0.0000012631558630    0.9845838957436187
    0.0013242562417872    0.0000000000000000    0.0016445688088424    -0.0000024055968336    0.9845901231183060
    0.0028693371568807    0.0000000000000000    0.0031108964176382    -0.0000041293455656    0.9852181535981438
    0.0046309450990521    0.0000000000000000    0.0043952528503724    -0.0000051679538825    0.9864563811478685
    0.0066008096910082    0.0000000000000000    0.0054948877950665    -0.0000065513778902    0.9880583915701273
    0.0087715510162525    0.0000000000000000    0.0064107434591279    -0.0000077855628432    0.9897092463787754
    0.0111365022603423    0.0000000000000000    0.0071455115394201    -0.0000089974159950    0.9912321281426122
    0.0136900742654689    0.0000000000000000    0.0077026963117532    -0.0000101945663038    0.9925492821606829
    0.0164281228790060    0.0000000000000000    0.0080854877014645    -0.0000110738321135    0.9936777401438528
    0.0193475651321933    0.0000000000000000    0.0082975929835812    -0.0000118658905793    0.9946223198494557
    0.0224462881451473    0.0000000000000000    0.0083421929448377    -0.0000127682451025    0.9953961871438485
    0.0257227854453959    0.0000000000000000    0.0082216545706615    -0.0000133623576412    0.9960490254067913
    0.0291758560342714    0.0000000000000000    0.0079378020018339    -0.0000142025968143    0.9965904666911888
    0.0328043414046988    0.0000000000000000    0.0074912225827575    -0.0000148079439187    0.9970484117917316
    0.0366071874741465    0.0000000000000000    0.0068834422563669    -0.0000155185630734    0.9974295487778942
    0.0405833314289339    0.0000000000000000    0.0061154722352512    -0.0000162124062965    0.9977493270361710
    0.0447315814089961    0.0000000000000000    0.0051877438090741    -0.0000170633870760    0.9980178652411574
    0.0490504529443569    0.0000000000000000    0.0040997891337611    -0.0000179086048695    0.9982512703645082
    0.0535387210547924    0.0000000000000000    0.0028528360126074    -0.0000187730090077    0.9984413081931801
    0.0581948674516753    0.0000000000000000    0.0014470495516434    -0.0000196546217006    0.9986106555574202
    0.0630170754739083    0.0000000000000000    -0.0001179639657494    -0.0000206113050861    0.9987540499235921
    0.0680036461562850    0.0000000000000000    -0.0018417596002110    -0.0000216596332676    0.9988771360321566
    0.0731527905445546    0.0000000000000000    -0.0037238958466332    -0.0000226838042350    0.9989846603928727
    0.0784624604857527    0.0000000000000000    -0.0057643600157462    -0.0000238126695262    0.9990776068472274
    0.0839304154505953    0.0000000000000000    -0.0079633351415395    -0.0000250318268030    0.9991608796341567
    0.0895546750980430    0.0000000000000000    -0.0103199668228626    -0.0000262070799051    0.9992313025730165
    0.0953329473268241    0.0000000000000000    -0.0128339729562867    -0.0000276057720060    0.9992954482064458
    0.1012626728042960    0.0000000000000000    -0.0155053808703087    -0.0000289753775454    0.9993519903950324
    0.1073414899292402    0.0000000000000000    -0.0183334970788565    -0.0000304805446877    0.9994022771572215
    0.1135669391369447    0.0000000000000000    -0.0213176029501483    -0.0000319402380374    0.9994468534020063
    0.1199363973573781    0.0000000000000000    -0.0244570776703767    -0.0000337251499843    0.9994863978404185
    0.1264469355810434    0.0000000000000000    -0.0277517116919625    -0.0000353927453081    0.9995230207743427
    0.1330960175837390    0.0000000000000000    -0.0312002334976569    -0.0000372381372280    0.9995548202753288
    0.1398808117955923    0.0000000000000000    -0.0348017247451935    -0.0000391205462185    0.9995841193962755
    0.1467984504997731    0.0000000000000000    -0.0385551772778854    -0.0000412460856243    0.9996102725742156
    0.1538457668502815    0.0000000000000000    -0.0424598347162828    -0.0000432917339932    0.9996344978861430
    0.1610199024435132    0.0000000000000000    -0.0465141726599540    -0.0000455640903498    0.9996561681030216
    0.1683178496314212    0.0000000000000000    -0.0507167943287641    -0.0000477770426260    0.9996755743416713
    0.1757364773657173    0.0000000000000000    -0.0550662761088461    -0.0000502547606096    0.9996937102190026
    0.1832725858548657    0.0000000000000000    -0.0595610546588432    -0.0000527628640810    0.9997097856590371
    0.1909228266449645    0.0000000000000000    -0.0641996779013426    -0.0000553078525320    0.9997251318686106
    0.1986841107136570    0.0000000000000000    -0.0689800359832589    -0.0000579834407687    0.9997385838331549
    0.2065531135885976    0.0000000000000000    -0.0739002019108739    -0.0000606513535424    0.9997508336810118
    0.2145264862338081    0.0000000000000000    -0.0789580987475347    -0.0000634289128575    0.9997625234693414
    0.2226008406723850    0.0000000000000000    -0.0841515233914833    -0.0000662963085953    0.9997727582307111
    0.2307726839790120    0.0000000000000000    -0.0894782432878855    -0.0000691364736721    0.9997823494338920
    0.2390385049511679    0.0000000000000000    -0.0949358442449011    -0.0000720197114754    0.9997911876408782
    0.2473948843544349    0.0000000000000000    -0.1005216202465818    -0.0000750041428044    0.9997990605784320
    0.2558382123243064    0.0000000000000000    -0.1062328326515853    -0.0000778206792291    0.9998066000725020
    0.2643649631063454    0.0000000000000000    -0.1120666681963484    -0.0000807453136010    0.9998130647888371
    0.2729714285233057    0.0000000000000000    -0.1180201619572471    -0.0000836771542065    0.9998192397996452
    0.2816539567429572    0.0000000000000000    -0.1240902155113872    -0.0000865199779922    0.9998248823661942
    0.2904088010545819    0.0000000000000000    -0.1302736087818630    -0.0000893350374728    0.9998299367027572
    0.2992322132922709    0.0000000000000000    -0.1365670138329733    -0.0000920224829826    0.9998347941141162
    0.3081203488982282    0.0000000000000000    -0.1429669873905368    -0.0000947218232711    0.9998390011629290
    0.3170693624415435    0.0000000000000000    -0.1494699276809115    -0.0000972168864848    0.9998430838068183
    0.3260753129725344    0.0000000000000000    -0.1560722152353265    -0.0000996395236177    0.9998467952990857
    0.3351342947571538    0.0000000000000000    -0.1627699154778384    -0.0001019351110774    0.9998501777112834
    0.3442422688822262    0.0000000000000000    -0.1695591898751445    -0.0001039274998070    0.9998535473138322
    0.3533952017314732    0.0000000000000000    -0.1764359230292030    -0.0001056982123787    0.9998567142158303
    0.3625889818067662    0.0000000000000000    -0.1833960628719069    -0.0001072642540345    0.9998597315604469
    0.3718194591929205    0.0000000000000000    -0.1904353022400755    -0.0001084020408951    0.9998628636843074
    0.3810823739040643    0.0000000000000000    -0.1975493844365701    -0.0001092653113596    0.9998658913005910
    0.3903735118219629    0.0000000000000000    -0.2047337783733383    -0.0001095685962441    0.9998691105563646
    0.3996884565567598    0.0000000000000000    -0.2119840385566931    -0.0001093709650962    0.9998724689476306
    0.4090228574350477    0.0000000000000000    -0.2192955185601022    -0.0001091324683644    0.9998753642372743
    0.4183722377056256    0.0000000000000000    -0.2266635429114103    -0.0001092710755015    0.9998773426463076
    0.4277320904657245    0.0000000000000000    -0.2340832761547062    -0.0001097011362978    0.9998786108024271
    0.4370977986836806    0.0000000000000000    -0.2415498766349629    -0.0001096069892516    0.9998802538825423
    0.4464647944550961    0.0000000000000000    -0.2490583901526406    -0.0001101628327894    0.9998808071115377
    0.4558282791404054    0.0000000000000000    -0.2566038155928254    -0.0001103344710770    0.9998812671237003
    0.4651835915865377    0.0000000000000000    -0.2641810778586660    -0.0001106419041311    0.9998812527962226
    0.4745257698232308    0.0000000000000000    -0.2717849932960235    -0.0001100740180395    0.9998817546050234
    0.4838500395417213    0.0000000000000000    -0.2794104319473262    -0.0001096187168984    0.9998817605482968
    0.4931513261981308    0.0000000000000000    -0.2870520665310324    -0.0001077396717679    0.9998828311662412
    0.5024245698004961    0.0000000000000000    -0.2947046532644891    -0.0001054295106614    0.9998838429173792
    0.5116648370167241    0.0000000000000000    -0.3023627691145521    -0.0001028656378471    0.9998845475936118
    0.5208668473642319    0.0000000000000000    -0.3100209646509029    -0.0000999565467086    0.9998853293566493
    0.5300255737965927    0.0000000000000000    -0.3176738463516812    -0.0000970043900302    0.9998854810066686
    0.5391356399049982    0.0000000000000000    -0.3253158910956699    -0.0000935857223947    0.9998854692596537
    0.5481917080469429    0.0000000000000000    -0.3329416325141210    -0.0000899591666863    0.9998851928908861
    0.5571885120589286    0.0000000000000000    -0.3405453943705652    -0.0000861030788702    0.9998847126709266
    0.5661207000957802    0.0000000000000000    -0.3481216174550354    -0.0000819993392512    0.9998836800296761
    0.5749828136758879    0.0000000000000000    -0.3556646986980923    -0.0000776867547231    0.9998822453425880
    0.5837693095672876    0.0000000000000000    -0.3631690393667669    -0.0000732705055149    0.9998802137362542
    0.5924748535035178    0.0000000000000000    -0.3706288536195643    -0.0000684247546904    0.9998777899744008
    0.6010938429972157    0.0000000000000000    -0.3780385303252842    -0.0000635105613906    0.9998746164523894
    0.6096207929076627    0.0000000000000000    -0.3853923960123211    -0.0000586348099106    0.9998705947927973
    0.6180501276394352    0.0000000000000000    -0.3926846923714039    -0.0000534040753106    0.9998661731083479
    0.6263763925526291    0.0000000000000000    -0.3999097018677276    -0.0000480582098519    0.9998608126994244
    0.6345939935417846    0.0000000000000000    -0.4070618011464830    -0.0000428030944138    0.9998543522338466
    0.6426974494243041    0.0000000000000000    -0.4141352047445252    -0.0000374802241954    0.9998470212248496
    0.6506812886800617    0.0000000000000000    -0.4211242162855342    -0.0000321906992907    0.9998381232245370
    0.6585398588795215    0.0000000000000000    -0.4280231930897571    -0.0000268569005546    0.9998280898476771
    0.6662679371656850    0.0000000000000000    -0.4348263947467785    -0.0000215523532620    0.9998165609517119
    0.6738599445670843    0.0000000000000000    -0.4415281760739162    -0.0000161173722752    0.9998039331739097
    0.6813105791807175    0.0000000000000000    -0.4481229119119234    -0.0000110227468836    0.9997899771000551
    0.6886145960306749    0.0000000000000000    -0.4546050010249019    -0.0000058672770935    0.9997734531819211
    0.6957666216185316    0.0000000000000000    -0.4609689163626172    -0.0000009315538119    0.9997556474353374
    0.7027616427512839    0.0000000000000000    -0.4672090373933315    0.0000039460604466    0.9997351851954753
    0.7095944607863203    0.0000000000000000    -0.4733200082264374    0.0000084480149970    0.9997124098964272
    0.7162600861629471    0.0000000000000000    -0.4792962757928763    0.0000128940878183    0.9996874079625840
    0.7227536210557446    0.0000000000000000    -0.4851325686322525    0.0000169868707879    0.9996593038290748
    0.7290702562313527    0.0000000000000000    -0.4908234999747947    0.0000210601687718    0.9996284832593902
    0.7352052775677294    0.0000000000000000    -0.4963639517663978    0.0000246930330009    0.9995933922358688
    0.7411540822358802    0.0000000000000000    -0.5017486489668954    0.0000283707751110    0.9995552524377136
    0.7469122476177290    0.0000000000000000    -0.5069726875808556    0.0000314745611559    0.9995123259464038
    0.7524754718178883    0.0000000000000000    -0.5120309899502899    0.0000343645599836    0.9994647647495913
    0.7578394598094746    0.0000000000000000    -0.5169187729188707    0.0000371145378750    0.9994095976513674
    0.7630001971265301    0.0000000000000000    -0.5216312803386245    0.0000395765161002    0.9993486855780011
    0.7679538176162168    0.0000000000000000    -0.5261639475356787    0.0000416682085945    0.9992775585395148
    0.7726964844623581    0.0000000000000000    -0.5305121793353464    0.0000438879878906    0.9991936408200938
    0.7772245912346989    0.0000000000000000    -0.5346717717475258    0.0000458843781613    0.9990973641276349
    0.7815348135773093    0.0000000000000000    -0.5386384283483494    0.0000479438660994    0.9989764571745980
    0.7856237782398239    0.0000000000000000    -0.5424082447425462    0.0000499393376940    0.9988282663485297
    0.7894883513217792    0.0000000000000000    -0.5459772722388152    0.0000523603637420    0.9986410412545929
    0.7931257118470967    0.0000000000000000    -0.5493418546684552    0.0000550202233657    0.9983997023204627
    0.7965330445440486    0.0000000000000000    -0.5524985292286146    0.0000571175115812    0.9980940210304975
    0.7997077725594863    0.0000000000000000    -0.5554440109699499    0.0000584724716088    0.9976990349524262
    0.8026475482620299    0.0000000000000000    -0.5581752123543993    0.0000630374532005    0.9971193128581223
    0.8053502655820921    0.0000000000000000    -0.5606893207295798    0.0000696157741000    0.9962559261040316
    0.8078143016900867    0.0000000000000000    -0.5629840836627409    0.0000756947939268    0.9950838990659590
    0.8100400920957327    0.0000000000000000    -0.5650591869780328    0.0000824528559231    0.9934615875497546
    0.8120366712100804    0.0000000000000000    -0.5669224106823094    0.0000916131202521    0.9911529906653533
    0.8138379987794906    0.0000000000000000    -0.5686048554780427    0.0001051005428738    0.9872642286913900
    0.8155155247077346    0.0000000000000000    -0.5701729322026949    0.0001178936946322    0.9794004599678832
    0.8171169527340680    0.0000000000000000    -0.5716710495180450    0.0001001992006262    0.9611700162184764
    0.8184685145970434    0.0000000000000000    -0.5729362830461469    0.0000324619610641    0.8553483882409909
    0.8191520437831059    0.0000000000000000    -0.5735764360870235    -0.0000388035168224    -1.6961279985416975
    0.8192996049765497    0.0000000000000000    -0.5736797348405016    -0.0000388035168224    -1.6961279985416975
    0.8181516581680626    0.0000000000000000    -0.5736757949925959    -0.0000280486729469    0.8555454298866718
    0.8163230951176956    0.0000000000000000    -0.5732244942337275    -0.0000454914742974    0.9609754530628501
    0.8142140738200396    0.0000000000000000    -0.5725464375282172    -0.0000393298414842    0.9792557226722554
    0.8120318461442366    0.0000000000000000    -0.5717570648994297    -0.0000265078506738    0.9871479494435828
    0.8097138705197722    0.0000000000000000    -0.5708599617064465    -0.0000181385060903    0.9910433361331271
    0.8071671695215628    0.0000000000000000    -0.5698294326430187    -0.0000128294794364    0.9933661969247907
    0.8043474180158228    0.0000000000000000    -0.5686483388417400    -0.0000092349528567    0.9949989709675119