VARIABLES = "X" "Y" "Z" "OrthoChange" "Orthogonality"
ZONE T="C2_R5"    I=257    J=129    K=1    F=POINT
    0.8191520442894671    0.0000000000000000    -0.5735764363510896    -0.0000488310278906    -1.6961380260527656
    0.8183167181221052    0.0000000000000000    -0.5731530725371101    -0.0001642299544972    0.8554092486051216
    0.8166655255661226    0.0000000000000000    -0.5723157559424408    -0.0001705988677574    0.9608503456693902
    0.8147100326689269    0.0000000000000000    -0.5713232933063068    -0.0001504158827869    0.9791446366309527
    0.8126627748690680    0.0000000000000000    -0.5702832503037882    -0.0001191744385277    0.9870552828557289
    0.8104657017436239    0.0000000000000000    -0.5691659888508411    -0.0000973960823112    0.9909640785569063
    0.8080319726707330    0.0000000000000000    -0.5679270798960943    -0.0000835371541010    0.9932954892501260
    0.8053207491493595    0.0000000000000000    -0.5665452460370091    -0.0000732380032531    0.9949349679171154
    0.8023216213132400    0.0000000000000000    -0.5650146745165046    -0.0000649341988325    0.9961214120071452
    0.7990347549837225    0.0000000000000000    -0.5633348167636427    -0.0000576187231940    0.9969986587778781
    0.7954627975343556    0.0000000000000000    -0.5615064643081382    -0.0000525329440006    0.9975879952435840
    0.7916091312793014    0.0000000000000000    -0.5595306060857439    -0.0000498897107285    0.9979870153761048
    0.7874774561942104    0.0000000000000000    -0.5574084008752749    -0.0000474317888477    0.9982944370001344
    0.7830717254548745    0.0000000000000000    -0.5551411654256810    -0.0000450966693316    0.9985435775037996
    0.7783961785689826    0.0000000000000000    -0.5527303271557145    -0.0000433358964606    0.9987350034255039
    0.7734552034416993    0.0000000000000000    -0.5501773093853757    -0.0000420852028146    0.9988863917965713
    0.7682535682138223    0.0000000000000000    -0.5474837198205620    -0.0000411168894183    0.9990094079617193
    0.7627961346204302    0.0000000000000000    -0.5446513442578294    -0.0000403523974311    0.9991093959434915
    0.7570880489588490    0.0000000000000000    -0.5416818738477360    -0.0000397681743252    0.9991953316853707
    0.7511344880867910    0.0000000000000000    -0.5385772678539098    -0.0000393002364615    0.9992698147920901
    0.7449411127236090    0.0000000000000000    -0.5353395219235750    -0.0000389195896431    0.9993335642135339
    0.7385135002650713    0.0000000000000000    -0.5319707507160274    -0.0000385377583744    0.9993918498092086
    0.7318575115398289    0.0000000000000000    -0.5284730797641828    -0.0000382397925708    0.9994426241194624
    0.7249791268320678    0.0000000000000000    -0.5248488796832902    -0.0000379560251034    0.9994889218839711
    0.7178845487496801    0.0000000000000000    -0.5211005153207680    -0.0000375847187032    0.9995311171455235
    0.7105799216799369    0.0000000000000000    -0.5172304346798740    -0.0000372772202644    0.9995701427303478
    0.7030717903264758    0.0000000000000000    -0.5132411375488743    -0.0000369273386687    0.9996053958333725
    0.6953665407422704    0.0000000000000000    -0.5091353502953382    -0.0000366062675028    0.9996379085275695
    0.6874709140063260    0.0000000000000000    -0.5049157079335203    -0.0000362429422304    0.9996677124634621
    0.6793915123059833    0.0000000000000000    -0.5005850438293322    -0.0000358895149376    0.9996953415582981
    0.6711352762920342    0.0000000000000000    -0.4961461236445501    -0.0000354609493660    0.9997211216741769
    0.6627090266365485    0.0000000000000000    -0.4916019883039980    -0.0000350623258412    0.9997442575039127
    0.6541197261060461    0.0000000000000000    -0.4869554758014374    -0.0000345941395415    0.9997664069988734
    0.6453744355508206    0.0000000000000000    -0.4822096997298786    -0.0000341905082741    0.9997858694810049
    0.6364802022462754    0.0000000000000000    -0.4773676891425396    -0.0000336553137620    0.9998048677671946
    0.6274441222908536    0.0000000000000000    -0.4724325072811836    -0.0000332640594994    0.9998214688349970
    0.6182734251260626    0.0000000000000000    -0.4674074426340979    -0.0000327097441493    0.9998376075005319
    0.6089752538628090    0.0000000000000000    -0.4622954913080264    -0.0000322241850074    0.9998522727716802
    0.5995568899684258    0.0000000000000000    -0.4570999714020160    -0.0000317317455958    0.9998654284812567
    0.5900255332876441    0.0000000000000000    -0.4518241097525078    -0.0000312294329875    0.9998776365909617
    0.5803884901777110    0.0000000000000000    -0.4464710849910602    -0.0000306780286403    0.9998889046294264
    0.5706529793963000    0.0000000000000000    -0.4410442008643685    -0.0000301313353526    0.9998990953308766
    0.5608262093332996    0.0000000000000000    -0.4355466720021326    -0.0000296455484418    0.9999084821169690
    0.5509155287643352    0.0000000000000000    -0.4299817203789047    -0.0000290962011309    0.9999171200922317
    0.5409281161651052    0.0000000000000000    -0.4243526033471027    -0.0000285284552538    0.9999249546987817
    0.5308711860145650    0.0000000000000000    -0.4186626307560033    -0.0000280412122017    0.9999318908851094
    0.5207519876250899    0.0000000000000000    -0.4129148548815209    -0.0000275310139656    0.9999381477921048
    0.5105776738269014    0.0000000000000000    -0.4071125696952578    -0.0000270180412537    0.9999437961132412
    0.5003553999140422    0.0000000000000000    -0.4012589617424709    -0.0000265416287829    0.9999486123732553
    0.4900921786572781    0.0000000000000000    -0.3953572132761990    -0.0000260360436765    0.9999530180648625
    0.4797951894909147    0.0000000000000000    -0.3894102685262908    -0.0000255104482287    0.9999569758159476
    0.4694713960402623    0.0000000000000000    -0.3834213799323720    -0.0000250384533236    0.9999602097514523
    0.4591277351089502    0.0000000000000000    -0.3773935264813417    -0.0000246084532332    0.9999628075006147
    0.4487710943592447    0.0000000000000000    -0.3713297573471976    -0.0000241161764523    0.9999651533356436
    0.4384083828224448    0.0000000000000000    -0.3652330911883013    -0.0000236267112513    0.9999669475842375
    0.4280463655024960    0.0000000000000000    -0.3591063366729373    -0.0000231799846512    0.9999681996305948
    0.4176917048507676    0.0000000000000000    -0.3529524489461267    -0.0000232362106465    0.9999685888824511
    0.4073511591427632    0.0000000000000000    -0.3467743502053509    -0.0000231937970876    0.9999687043738399
    0.3970311467003285    0.0000000000000000    -0.3405748246561018    -0.0000234527299224    0.9999681452550513
    0.3867382750502202    0.0000000000000000    -0.3343566980356343    -0.0000236022000171    0.9999673714803908
    0.3764788648638842    0.0000000000000000    -0.3281226861741260    -0.0000238141951254    0.9999660426780486
    0.3662593155497689    0.0000000000000000    -0.3218754963668147    -0.0000235939771256    0.9999647201846894
    0.3560857701575060    0.0000000000000000    -0.3156178383152621    -0.0000234710541683    0.9999631432534823
    0.3459644370675506    0.0000000000000000    -0.3093522764608281    -0.0000230203228022    0.9999614510621000
    0.3359013168112597    0.0000000000000000    -0.3030815162118472    -0.0000222614444497    0.9999595702822192
    0.3259024233741457    0.0000000000000000    -0.2968080359200940    -0.0000213241585036    0.9999573646318682
    0.3159735235210519    0.0000000000000000    -0.2905344591712264    -0.0000205282276160    0.9999546189019768
    0.3061203907523123    0.0000000000000000    -0.2842632960223171    -0.0000199221643092    0.9999513539147061
    0.2963486389462560    0.0000000000000000    -0.2779970766510331    -0.0000193492910668    0.9999476363158895
    0.2866638099728789    0.0000000000000000    -0.2717382262397479    -0.0000189176954944    0.9999435058366308
    0.2770712879025723    0.0000000000000000    -0.2654892914142550    -0.0000185062730225    0.9999389576504504
    0.2675763680229011    0.0000000000000000    -0.2592526338435874    -0.0000181353951128    0.9999339842778224
    0.2581842122374383    0.0000000000000000    -0.2530307537340377    -0.0000178806203782    0.9999285484683043
    0.2488998967062344    0.0000000000000000    -0.2468260139450535    -0.0000176179236148    0.9999226952632594
    0.2397283697127932    0.0000000000000000    -0.2406408560567996    -0.0000173274813854    0.9999163825169248
    0.2306744574648292    0.0000000000000000    -0.2344776361796335    -0.0000171429197664    0.9999096871346517
    0.2217427911493814    0.0000000000000000    -0.2283388330831571    -0.0000168686205199    0.9999023891817688
    0.2129379842649541    0.0000000000000000    -0.2222267949129559    -0.0000166818210486    0.9998947285899622
    0.2042643893646527    0.0000000000000000    -0.2161439826984974    -0.0000164573146934    0.9998864597532990
    0.1957263571744079    0.0000000000000000    -0.2100927561464659    -0.0000163027058292    0.9998775067469359
    0.1873280202139541    0.0000000000000000    -0.2040755268150747    -0.0000161182557982    0.9998681579313204
    0.1790734502621945    0.0000000000000000    -0.1980947410450824    -0.0000158656497696    0.9998581973639915
    0.1709664853303821    0.0000000000000000    -0.1921527633550539    -0.0000157835941483    0.9998474225574628
    0.1630109451180033    0.0000000000000000    -0.1862520363887512    -0.0000156471859257    0.9998357997502562
    0.1552105327559730    0.0000000000000000    -0.1803948575046093    -0.0000154913318328    0.9998236417095016
    0.1475687157458197    0.0000000000000000    -0.1745837046986480    -0.0000153898731373    0.9998105231303507
    0.1400887976983540    0.0000000000000000    -0.1688210821909734    -0.0000153205322744    0.9997961650739977
    0.1327739946500515    0.0000000000000000    -0.1631094374240263    -0.0000151948487038    0.9997814663451772
    0.1256274136826505    0.0000000000000000    -0.1574511915794403    -0.0000152138587375    0.9997652575075762
    0.1186519973759915    0.0000000000000000    -0.1518488189182392    -0.0000151229434215    0.9997475167765238
    0.1118507881481037    0.0000000000000000    -0.1463044952419352    -0.0000151945891158    0.9997287827729685
    0.1052262945772781    0.0000000000000000    -0.1408208729808535    -0.0000152963276562    0.9997080715152273
    0.0987810768444888    0.0000000000000000    -0.1354004269528702    -0.0000151880088729    0.9996865337838827
    0.0925175468112229    0.0000000000000000    -0.1300456099824459    -0.0000153328005368    0.9996624426422804
    0.0864380464672650    0.0000000000000000    -0.1247587668473358    -0.0000153142842567    0.9996362015615144
    0.0805449816066356    0.0000000000000000    -0.1195420732604902    -0.0000156694251412    0.9996075914970984
    0.0748401527673650    0.0000000000000000    -0.1143982316042269    -0.0000156529917740    0.9995763789033973
    0.0693254777231687    0.0000000000000000    -0.1093296079603477    -0.0000159326900478    0.9995424432832150
    0.0640028049790544    0.0000000000000000    -0.1043385244547181    -0.0000160299718577    0.9995039925280772
    0.0588741768790442    0.0000000000000000    -0.0994269614286480    -0.0000166784363069    0.9994621147494492
    0.0539408122804162    0.0000000000000000    -0.0945975686917393    -0.0000167187132593    0.9994160290957268
    0.0492041699671972    0.0000000000000000    -0.0898526274199583    -0.0000173677097960    0.9993635856556162
    0.0446657823047190    0.0000000000000000    -0.0851941838044752    -0.0000176063210238    0.9993055671267723
    0.0403271148343265    0.0000000000000000    -0.0806242236007364    -0.0000186171273698    0.9992389891399500
    0.0361889884793527    0.0000000000000000    -0.0761451725547460    -0.0000190034925370    0.9991670082626309
    0.0322524833211446    0.0000000000000000    -0.0717590603147329    -0.0000199853530610    0.9990814587313266
    0.0285190478625736    0.0000000000000000    -0.0674674877921433    -0.0000213207262036    0.9989860956515854
    0.0249893162892931    0.0000000000000000    -0.0632725953560395    -0.0000223476920171    0.9988764873669300
    0.0216639685941118    0.0000000000000000    -0.0591763280625486    -0.0000243957560430    0.9987501188453787
    0.0185440449502039    0.0000000000000000    -0.0551802010078717    -0.0000257662967722    0.9986046432215656
    0.0156305446514579    0.0000000000000000    -0.0512856642781401    -0.0000288124495437    0.9984311338796924
    0.0129237036446739    0.0000000000000000    -0.0474945566614054    -0.0000312534145744    0.9982381313255502
    0.0104242296356460    0.0000000000000000    -0.0438082445823511    -0.0000342545827078    0.9980007521601555
    0.0081336553175789    0.0000000000000000    -0.0402274715383868    -0.0000394514335053    0.9977261027412986
    0.0060520834806539    0.0000000000000000    -0.0367537761475063    -0.0000429389130617    0.9974021806885424
    0.0041803033527685    0.0000000000000000    -0.0333881453440910    -0.0000497715486776    0.9970133623859776
    0.0025196390549809    0.0000000000000000    -0.0301312243268370    -0.0000557423229336    0.9965489422573063
    0.0010718853311573    0.0000000000000000    -0.0269834830293689    -0.0000670278332947    0.9959953368588950
    -0.0001620133912183    0.0000000000000000    -0.0239458101370075    -0.0000766539839752    0.9953324151944778
    -0.0011799313879238    0.0000000000000000    -0.0210187095059382    -0.0000917585332380    0.9945424296524348
    -0.0019791238951256    0.0000000000000000    -0.0182027864761381    -0.0001116908090325    0.9935771144196200
    -0.0025558904033005    0.0000000000000000    -0.0154989392730726    -0.0001337855280337    0.9924256540013050
    -0.0029056773591946    0.0000000000000000    -0.0129087987285743    -0.0001626010783429    0.9910787243065192
    -0.0030240881615100    0.0000000000000000    -0.0104351648273991    -0.0001932636418953    0.9895236329602715
    -0.0029058970376355    0.0000000000000000    -0.0080820946229921    -0.0002232306422979    0.9878418646067125
    -0.0025463166555255    0.0000000000000000    -0.0058549287366532    -0.0002487185430289    0.9862125142066197
    -0.0019419160812504    0.0000000000000000    -0.0037602841577495    -0.0002682825646880    0.9849531514247116
    -0.0010924720991170    0.0000000000000000    -0.0018068666466888    -0.0002980320710186    0.9842961321014635
    -0.0000000000011366    0.0000000000000000    -0.0000000000001412    -0.0003357160824201    0.9842494428170616
    0.0013242561344669    0.0000000000000000    0.0016445688654301    -0.0003684979634917    0.9842240307516479
    0.0028693371159534    0.0000000000000000    0.0031108963901829    -0.0003957581158356    0.9848265248278738
    0.0046309451918205    0.0000000000000000    0.0043952527113760    -0.0004079208903122    0.9860536282114388
    0.0066008097755912    0.0000000000000000    0.0054948877329934    -0.0004217901172638    0.9876431528307537
    0.0087715511403985    0.0000000000000000    0.0064107433766055    -0.0004355405210061    0.9892814914206125
    0.0111365025700252    0.0000000000000000    0.0071455117342225    -0.0004458836413876    0.9907952419172196
    0.0136900743116257    0.0000000000000000    0.0077026963572848    -0.0004514239951022    0.9921080527318845
    0.0164281238917284    0.0000000000000000    0.0080854877587626    -0.0004486935164610    0.9932401204595053
    0.0193475656126338    0.0000000000000000    0.0082975927962821    -0.0004427312892253    0.9941914544508097
    0.0224462884787044    0.0000000000000000    0.0083421927349860    -0.0004322965976468    0.9949766587913043
    0.0257227858023725    0.0000000000000000    0.0082216545917361    -0.0004177177458005    0.9956446700186320
    0.0291758560081234    0.0000000000000000    0.0079378020296161    -0.0004053555813229    0.9961993137066801
    0.0328043423644431    0.0000000000000000    0.0074912221625141    -0.0003897845365518    0.9966734351990986
    0.0366071879132050    0.0000000000000000    0.0068834418385962    -0.0003764337646287    0.9970686335763389
    0.0405833316563076    0.0000000000000000    0.0061154722925778    -0.0003620083077633    0.9974035311347041
    0.0447315809835800    0.0000000000000000    0.0051877438527441    -0.0003507803063806    0.9976841483218528
    0.0490504535332548    0.0000000000000000    0.0040997891777295    -0.0003393198568066    0.9979298591125711
    0.0535387217030347    0.0000000000000000    0.0028528362088167    -0.0003289797532514    0.9981311014489364
    0.0581948679730431    0.0000000000000000    0.0014470493479308    -0.0003207722121041    0.9983095379670167
    0.0630170758067834    0.0000000000000000    -0.0001179639281190    -0.0003124579747836    0.9984622032538946
    0.0680036459866642    0.0000000000000000    -0.0018417596399019    -0.0003060610122757    0.9985927346531485
    0.0731527913947048    0.0000000000000000    -0.0037238959320120    -0.0002999451781432    0.9987073990189644
    0.0784624608647846    0.0000000000000000    -0.0057643600059691    -0.0002951927823591    0.9988062267343945
    0.0839304158187133    0.0000000000000000    -0.0079633352729047    -0.0002909908813976    0.9988949205795621
    0.0895546760120851    0.0000000000000000    -0.0103199672371801    -0.0002871039798633    0.9989704056730583
    0.0953329473934446    0.0000000000000000    -0.0128339729751303    -0.0002846668455272    0.9990383871329246
    0.1012626724811980    0.0000000000000000    -0.0155053808180696    -0.0002819499579229    0.9990990158146550
    0.1073414901372871    0.0000000000000000    -0.0183334970509748    -0.0002803311266196    0.9991524265752896
    0.1135669385112124    0.0000000000000000    -0.0213176029191686    -0.0002784883544458    0.9992003052855980
    0.1199363964362874    0.0000000000000000    -0.0244570773058115    -0.0002778745001898    0.9992422484902130
    0.1264469356615337    0.0000000000000000    -0.0277517116652887    -0.0002769004129619    0.9992815131066889
    0.1330960181180671    0.0000000000000000    -0.0312002336217034    -0.0002765449584373    0.9993155134541195
    0.1398808124058632    0.0000000000000000    -0.0348017247760879    -0.0002760345563689    0.9993472053861250
    0.1467984498988244    0.0000000000000000    -0.0385551769992532    -0.0002763083740461    0.9993752102857938
    0.1538457668227693    0.0000000000000000    -0.0424598348164977    -0.0002761714441264    0.9994016181760098
    0.1610199022557026    0.0000000000000000    -0.0465141725009061    -0.0002764198826878    0.9994253123106837
    0.1683178496841719    0.0000000000000000    -0.0507167943162159    -0.0002764116324643    0.9994469397518331
    0.1757364771590346    0.0000000000000000    -0.0550662758203373    -0.0002768403722041    0.9994671246074081
    0.1832725856249909    0.0000000000000000    -0.0595610546170633    -0.0002772009768992    0.9994853475462189
    0.1909228267584240    0.0000000000000000    -0.0641996775468386    -0.0002773012837297    0.9995031384374129
    0.1986841111356626    0.0000000000000000    -0.0689800359429427    -0.0002776220987406    0.9995189451751830
    0.2065531136988738    0.0000000000000000    -0.0739002017769082    -0.0002775615221249    0.9995339235124293
    0.2145264859148029    0.0000000000000000    -0.0789580986956935    -0.0002775469791833    0.9995484054030156
    0.2226008408101734    0.0000000000000000    -0.0841515233831273    -0.0002774989275768    0.9995615556117297
    0.2307726846036075    0.0000000000000000    -0.0894782432099248    -0.0002771570494546    0.9995743288581095
    0.2390385049225188    0.0000000000000000    -0.0949358442626220    -0.0002766574147195    0.9995865499376341
    0.2473948849531098    0.0000000000000000    -0.1005216202714081    -0.0002761534290960    0.9995979112921404
    0.2558382122697367    0.0000000000000000    -0.1062328325897113    -0.0002751181189501    0.9996093026327810
    0.2643649629540050    0.0000000000000000    -0.1120666681164124    -0.0002740910906976    0.9996197190117405
    0.2729714284762394    0.0000000000000000    -0.1180201617428338    -0.0002729007193562    0.9996300162344955
    0.2816539570806071    0.0000000000000000    -0.1240902153047756    -0.0002713647253829    0.9996400376188035
    0.2904088006034726    0.0000000000000000    -0.1302736085506240    -0.0002696379288948    0.9996496338113352
    0.2992322133247853    0.0000000000000000    -0.1365670138023773    -0.0002675280534865    0.9996592885436123
    0.3081203488316077    0.0000000000000000    -0.1429669873969885    -0.0002653537185030    0.9996683692676971
    0.3170693622676026    0.0000000000000000    -0.1494699275847751    -0.0002627119348217    0.9996775887584813
    0.3260753120218851    0.0000000000000000    -0.1560722149007745    -0.0002598941063334    0.9996865407163700
    0.3351342946825753    0.0000000000000000    -0.1627699155431373    -0.0002568147618347    0.9996952980605260
    0.3442422682712731    0.0000000000000000    -0.1695591896876039    -0.0002531985709945    0.9997042762426448
    0.3533952012182908    0.0000000000000000    -0.1764359228428702    -0.0002492284266266    0.9997131840015825
    0.3625889819900294    0.0000000000000000    -0.1833960627647286    -0.0002449614513106    0.9997220343631709
    0.3718194594152920    0.0000000000000000    -0.1904353020666889    -0.0002400870734905    0.9997311786517120
    0.3810823736632756    0.0000000000000000    -0.1975493846183696    -0.0002348666151413    0.9997402899968093
    0.3903735125591083    0.0000000000000000    -0.2047337784065917    -0.0002289089431331    0.9997497702094756
    0.3996884572952695    0.0000000000000000    -0.2119840386729805    -0.0002223344679565    0.9997595054447703
    0.4090228577651943    0.0000000000000000    -0.2192955186344960    -0.0002158722951980    0.9997686244104407
    0.4183722384320845    0.0000000000000000    -0.2266635428030668    -0.0002100965100144    0.9997765172117947
    0.4277320902087923    0.0000000000000000    -0.2340832757671762    -0.0002048738128405    0.9997834381258844
    0.4370977987255174    0.0000000000000000    -0.2415498766083175    -0.0001991126037868    0.9997907482680071
    0.4464647935697030    0.0000000000000000    -0.2490583896622382    -0.0001943619508731    0.9997966079934540
    0.4558282800214783    0.0000000000000000    -0.2566038158977193    -0.0001892670291284    0.9998023345656489
    0.4651835912529805    0.0000000000000000    -0.2641810775624833    -0.0001844746042349    0.9998074200961189
    0.4745257692918585    0.0000000000000000    -0.2717849931000984    -0.0001787128119553    0.9998131158111077
    0.4838500389712408    0.0000000000000000    -0.2794104316406560    -0.0001732466300498    0.9998181326351454
    0.4931513257629376    0.0000000000000000    -0.2870520663422838    -0.0001661809186781    0.9998243899193310
    0.5024245697768492    0.0000000000000000    -0.2947046533756748    -0.0001588226324282    0.9998304497956124
    0.5116648371863448    0.0000000000000000    -0.3023627688689317    -0.0001513732639384    0.9998360399675205
    0.5208668474795104    0.0000000000000000    -0.3100209644864975    -0.0001437686622425    0.9998415172411154
    0.5300255731331163    0.0000000000000000    -0.3176738462515373    -0.0001363312300825    0.9998461541666164
    0.5391356402572001    0.0000000000000000    -0.3253158913500726    -0.0001285808895362    0.9998504740925123
    0.5481917088291084    0.0000000000000000    -0.3329416325162953    -0.0001208284341246    0.9998543236234477
    0.5571885117958573    0.0000000000000000    -0.3405453943573207    -0.0001130679005888    0.9998577478492080
    0.5661207009052305    0.0000000000000000    -0.3481216174397303    -0.0001052499445829    0.9998604294243444
    0.5749828131633876    0.0000000000000000    -0.3556646983676330    -0.0000974278628848    0.9998625042344262
    0.5837693089761160    0.0000000000000000    -0.3631690392273015    -0.0000897178638081    0.9998637663779610
    0.5924748535471736    0.0000000000000000    -0.3706288535279185    -0.0000817647903947    0.9998644499386965
    0.6010938435015305    0.0000000000000000    -0.3780385305290110    -0.0000739563027441    0.9998641707110359
    0.6096207926593706    0.0000000000000000    -0.3853923960281662    -0.0000664119584308    0.9998628176442771
    0.6180501278727206    0.0000000000000000    -0.3926846921879986    -0.0000586955430834    0.9998608816405752
    0.6263763928780008    0.0000000000000000    -0.3999097020841020    -0.0000510674148180    0.9998578034944583
    0.6345939939103573    0.0000000000000000    -0.4070618012438416    -0.0000437323611711    0.9998534229670893
    0.6426974493870148    0.0000000000000000    -0.4141352049871045    -0.0000365061397549    0.9998479953092900
    0.6506812891525442    0.0000000000000000    -0.4211242162240580    -0.0000294927924391    0.9998408211313886
    0.6585398588636053    0.0000000000000000    -0.4280231930781326    -0.0000226031068645    0.9998323436413672
    0.6662679374060190    0.0000000000000000    -0.4348263945473149    -0.0000158989740574    0.9998222143309164
    0.6738599449074627    0.0000000000000000    -0.4415281763236009    -0.0000092221756437    0.9998108283705412
    0.6813105801229540    0.0000000000000000    -0.4481229118393628    -0.0000030446790086    0.9997979551679301
    0.6886145959786063    0.0000000000000000    -0.4546050010856533    0.0000030816855512    0.9997824021445658
    0.6957666217872429    0.0000000000000000    -0.4609689166703675    0.0000088301094044    0.9997654090985537
    0.7027616434911579    0.0000000000000000    -0.4672090375594422    0.0000144404597623    0.9997456795947910
    0.7095944611321556    0.0000000000000000    -0.4733200082056470    0.0000195905845205    0.9997235524659507
    0.7162600859674058    0.0000000000000000    -0.4792962753293608    0.0000245768016706    0.9996990906764363
    0.7227536219972990    0.0000000000000000    -0.4851325688785266    0.0000291449725552    0.9996714619308421
    0.7290702565503580    0.0000000000000000    -0.4908234997891867    0.0000335910995579    0.9996410141901764
    0.7352052771761919    0.0000000000000000    -0.4963639515439979    0.0000376124691730    0.9996063116720409
    0.7411540825294196    0.0000000000000000    -0.5017486489433622    0.0000416216395823    0.9995685033021849
    0.7469122483041701    0.0000000000000000    -0.5069726874631613    0.0000450183951435    0.9995258697803914
    0.7524754709122590    0.0000000000000000    -0.5120309901646749    0.0000482167341951    0.9994786169238028
    0.7578394602346634    0.0000000000000000    -0.5169187726338720    0.0000512946608529    0.9994237777743452
    0.7630001962429560    0.0000000000000000    -0.5216312804020191    0.0000540806212653    0.9993631896831662
    0.7679538178749681    0.0000000000000000    -0.5261639476292572    0.0000565635730080    0.9992924539039283
    0.7726964843782298    0.0000000000000000    -0.5305121794853136    0.0000592564687242    0.9992090093009274
    0.7772245910018682    0.0000000000000000    -0.5346717715076892    0.0000617797926042    0.9991132595420779
    0.7815348148865269    0.0000000000000000    -0.5386384284039565    0.0000645741932656    0.9989930875017642
    0.7856237785313169    0.0000000000000000    -0.5424082446749878    0.0000673834726557    0.9988457104834914
    0.7894883521382781    0.0000000000000000    -0.5459772728160601    0.0000708515131043    0.9986595324039551
    0.7931257124312197    0.0000000000000000    -0.5493418549887394    0.0000748569244710    0.9984195390215680
    0.7965330445704240    0.0000000000000000    -0.5524985291333024    0.0000785401461775    0.9981154436650937
    0.7997077731770332    0.0000000000000000    -0.5554440108049477    0.0000817675362547    0.9977223300170720
    0.8026475488286451    0.0000000000000000    -0.5581752124357138    0.0000890108514831    0.9971452862564049
    0.8053502667110024    0.0000000000000000    -0.5606893206271195    0.0000990068897571    0.9962853172196886
    0.8078143018840365    0.0000000000000000    -0.5629840836688942    0.0001092783357489    0.9951174826077811
    0.8100400926859948    0.0000000000000000    -0.5650591872979192    0.0001213020778691    0.9935004367717005
    0.8120366719263075    0.0000000000000000    -0.5669224109188207    0.0001369520196580    0.9911983295647593
    0.8138379993342824    0.0000000000000000    -0.5686048558253134    0.0001606442950320    0.9873197724435482
    0.8155155244453454    0.0000000000000000    -0.5701729318323174    0.0001896338591155    0.9794722001323665
    0.8171169536233265    0.0000000000000000    -0.5716710498615498    0.0001900547981196    0.9612598718159698
    0.8184685156393243    0.0000000000000000    -0.5729362832156255    0.0001670349627966    0.8554829612427234
    0.8191520442894671    0.0000000000000000    -0.5735764363510896    -0.0000488310278906    -1.6961380260527656
    0.8192996305317592    0.0000000000000000    -0.5736796578884960    -0.0000488310278906    -1.6961380260527656
    0.8181517316240843    0.0000000000000000    -0.5736758420228938    -0.0001642299544972    0.8554092486051216
    0.8163231752737374    0.0000000000000000    -0.5732245916133110    -0.0001705988677574    0.9608503456693902
    0.8142141781515875    0.0000000000000000    -0.5725466576935503    -0.0001504158827869    0.9791446366309527
    0.8120319740728519    0.0000000000000000    -0.5717574192582333    -0.0001191744385277    0.9870552828557289
    0.8097140202794435    0.0000000000000000    -0.5708604753931183    -0.0000973960823112    0.9909640785569063
    0.8071673389929401    0.0000000000000000    -0.5698301354828175    -0.0000835371541010    0.9932954892501260