VARIABLES = "X" "Y" "Z" "OrthoChange" "Orthogonality"
ZONE T="C0_R5"    I=257    J=129    K=1    F=POINT
    0.8191520442889937    0.0000000000000000    -0.5735764363510460    0.5859600972881802    -1.1101290977366949
    0.8183167181222686    0.0000000000000000    -0.5731530725370441    -0.2971926459348899    0.5583808326247288
    0.8166655255653934    0.0000000000000000    -0.5723157559425539    -0.2550895455932114    0.7059313989439362
    0.8147100326687946    0.0000000000000000    -0.5713232933063197    -0.2118202276814064    0.7674748248323332
    0.8126627748697777    0.0000000000000000    -0.5702832503037542    -0.1800154294253383    0.8071590278689182
    0.8104657017440751    0.0000000000000000    -0.5691659888509012    -0.1603158477511875    0.8307456268880300
    0.8080319726709035    0.0000000000000000    -0.5679270798960627    -0.1479996818744871    0.8453793445297400
    0.8053207491495460    0.0000000000000000    -0.5665452460370017    -0.1393329649798297    0.8556752409405388
    0.8023216213131334    0.0000000000000000    -0.5650146745164761    -0.1327793955977261    0.8634069506082516
    0.7990347549835910    0.0000000000000000    -0.5633348167636592    -0.1275048232944302    0.8695514542066418
    0.7954627975346833    0.0000000000000000    -0.5615064643081608    -0.1235483592103559    0.8740921689772287
    0.7916091312809153    0.0000000000000000    -0.5595306060857821    -0.1208505514041791    0.8771863536826542
    0.7874774561944262    0.0000000000000000    -0.5574084008753577    -0.1185811479551879    0.8797607208337942
    0.7830717254548176    0.0000000000000000    -0.5551411654256095    -0.1166520105215476    0.8819366636515836
    0.7783961785686362    0.0000000000000000    -0.5527303271556692    -0.1151253861241827    0.8836529531977818
    0.7734552034404887    0.0000000000000000    -0.5501773093853037    -0.1139442247502103    0.8849842522491757
    0.7682535682131535    0.0000000000000000    -0.5474837198205936    -0.1130090967566426    0.8860414280944950
    0.7627961346209267    0.0000000000000000    -0.5446513442576608    -0.1122671251655158    0.8868826231754067
    0.7570880489606324    0.0000000000000000    -0.5416818738477858    -0.1117009379800833    0.8875341618796125
    0.7511344880868327    0.0000000000000000    -0.5385772678538756    -0.1112749068650981    0.8880342081634535
    0.7449411127240753    0.0000000000000000    -0.5353395219235629    -0.1109577722745276    0.8884147115286494
    0.7385135002641006    0.0000000000000000    -0.5319707507160673    -0.1107301675855542    0.8887002199820287
    0.7318575115401877    0.0000000000000000    -0.5284730797642438    -0.1105870553371372    0.8888938085748960
    0.7249791268324497    0.0000000000000000    -0.5248488796832912    -0.1105129296413863    0.8890139482676882
    0.7178845487510355    0.0000000000000000    -0.5211005153208058    -0.1104751559388607    0.8890935459253659
    0.7105799216799573    0.0000000000000000    -0.5172304346799148    -0.1105035142067516    0.8891039057438606
    0.7030717903259482    0.0000000000000000    -0.5132411375488107    -0.1105625339109833    0.8890797892610579
    0.6953665407428913    0.0000000000000000    -0.5091353502954423    -0.1106675326996407    0.8890069820954316
    0.6874709140069575    0.0000000000000000    -0.5049157079334902    -0.1107971995776789    0.8889067558280136
    0.6793915123062977    0.0000000000000000    -0.5005850438292841    -0.1109609466456113    0.8887702844276244
    0.6711352762916283    0.0000000000000000    -0.4961461236446274    -0.1111394273447587    0.8886171552787843
    0.6627090266365796    0.0000000000000000    -0.4916019883038964    -0.1113455924784025    0.8884337273513514
    0.6541197261078731    0.0000000000000000    -0.4869554758014548    -0.1115672987175588    0.8882337024208562
    0.6453744355517275    0.0000000000000000    -0.4822096997297962    -0.1118145646445514    0.8880054953447276
    0.6364802022452718    0.0000000000000000    -0.4773676891425378    -0.1120678686081520    0.8877706544728046
    0.6274441222908838    0.0000000000000000    -0.4724325072811171    -0.1123552232453031    0.8874995096491933
    0.6182734251265938    0.0000000000000000    -0.4674074426340468    -0.1126423764568576    0.8872279407878235
    0.6089752538630524    0.0000000000000000    -0.4622954913080226    -0.1129543568051037    0.8869301401515839
    0.5995568899686674    0.0000000000000000    -0.4570999714020074    -0.1132784880516841    0.8866186721751684
    0.5900255332868483    0.0000000000000000    -0.4518241097524821    -0.1136183643434888    0.8862905016804604
    0.5803884901782306    0.0000000000000000    -0.4464710849911077    -0.1139666347461763    0.8859529479118904
    0.5706529793971447    0.0000000000000000    -0.4410442008642939    -0.1143299352528850    0.8855992914133441
    0.5608262093339542    0.0000000000000000    -0.4355466720022018    -0.1147170222994973    0.8852211053659135
    0.5509155287643610    0.0000000000000000    -0.4299817203790524    -0.1151108961553174    0.8848353201380451
    0.5409281161643698    0.0000000000000000    -0.4243526033471171    -0.1155166425246203    0.8844368406294152
    0.5308711860148554    0.0000000000000000    -0.4186626307559609    -0.1159463476668744    0.8840135844304366
    0.5207519876239424    0.0000000000000000    -0.4129148548816053    -0.1163864724513518    0.8835792063547185
    0.5105776738267904    0.0000000000000000    -0.4071125696952695    -0.1168414977416836    0.8831293164128113
    0.5003553999150325    0.0000000000000000    -0.4012589617424561    -0.1173118519514866    0.8826633020505515
    0.4900921786582497    0.0000000000000000    -0.3953572132761904    -0.1177977279551529    0.8821813261533861
    0.4797951894916324    0.0000000000000000    -0.3894102685263220    -0.1182957264670599    0.8816867597971164
    0.4694713960397792    0.0000000000000000    -0.3834213799321968    -0.1188125488070005    0.8811726993977753
    0.4591277351088330    0.0000000000000000    -0.3773935264812674    -0.1193452732730370    0.8806421426808109
    0.4487710943599792    0.0000000000000000    -0.3713297573473091    -0.1198911745317573    0.8800980949803385
    0.4384083828217564    0.0000000000000000    -0.3652330911883026    -0.1204521189628641    0.8795384553326248
    0.4280463655033921    0.0000000000000000    -0.3591063366730531    -0.1210299136488937    0.8789614659663523
    0.4176917048506414    0.0000000000000000    -0.3529524489461628    -0.1216601830645406    0.8783316420285570
    0.4073511591427739    0.0000000000000000    -0.3467743502053134    -0.1222950750135161    0.8776968231574114
    0.3970311466992307    0.0000000000000000    -0.3405748246560096    -0.1229699365165869    0.8770216614683868
    0.3867382750499884    0.0000000000000000    -0.3343566980356319    -0.1236518546518444    0.8763391190285635
    0.3764788648639552    0.0000000000000000    -0.3281226861740454    -0.1243561604770660    0.8756336963961080
    0.3662593155496286    0.0000000000000000    -0.3218754963668267    -0.1250432824689657    0.8749450316928493
    0.3560857701575273    0.0000000000000000    -0.3156178383153505    -0.1257523506578079    0.8742342636498428
    0.3459644370685569    0.0000000000000000    -0.3093522764607546    -0.1264570417580404    0.8735274296268618
    0.3359013168111913    0.0000000000000000    -0.3030815162119378    -0.1271591859805516    0.8728226457461172
    0.3259024233737877    0.0000000000000000    -0.2968080359200408    -0.1278670940979258    0.8721115946924460
    0.3159735235224508    0.0000000000000000    -0.2905344591711057    -0.1286018546545376    0.8713732924750552
    0.3061203907532236    0.0000000000000000    -0.2842632960222966    -0.1293656272729420    0.8706056488060734
    0.2963486389462071    0.0000000000000000    -0.2779970766509373    -0.1301498592199531    0.8698171263870031
    0.2866638099718122    0.0000000000000000    -0.2717382262397585    -0.1309602298055531    0.8690021937265722
    0.2770712879015376    0.0000000000000000    -0.2654892914142087    -0.1317912779369808    0.8681661859864921
    0.2675763680229881    0.0000000000000000    -0.2592526338436423    -0.1326441773874086    0.8673079422855265
    0.2581842122375049    0.0000000000000000    -0.2530307537340386    -0.1335244222870566    0.8664220068016258
    0.2488998967077887    0.0000000000000000    -0.2468260139449831    -0.1344250763819467    0.8655152368049275
    0.2397283697119396    0.0000000000000000    -0.2406408560566686    -0.1353464485417111    0.8645872614565991
    0.2306744574649153    0.0000000000000000    -0.2344776361797440    -0.1362955962240419    0.8636312338303762
    0.2217427911496505    0.0000000000000000    -0.2283388330831324    -0.1372653005105123    0.8626539572917763
    0.2129379842663823    0.0000000000000000    -0.2222267949129763    -0.1382641855505177    0.8616472248604932
    0.2042643893641740    0.0000000000000000    -0.2161439826985120    -0.1392892618988072    0.8606136551691852
    0.1957263571750705    0.0000000000000000    -0.2100927561464141    -0.1403466166034134    0.8595471928493517
    0.1873280202147028    0.0000000000000000    -0.2040755268148706    -0.1414327366237933    0.8584515395633253
    0.1790734502615203    0.0000000000000000    -0.1980947410450048    -0.1425488059690031    0.8573252570447580
    0.1709664853316006    0.0000000000000000    -0.1921527633550864    -0.1437094389000310    0.8561537672515802
    0.1630109451188808    0.0000000000000000    -0.1862520363888791    -0.1449063992074480    0.8549450477287339
    0.1552105327558389    0.0000000000000000    -0.1803948575045769    -0.1461417576925279    0.8536973753488064
    0.1475687157449191    0.0000000000000000    -0.1745837046986635    -0.1474242478029297    0.8524016652005583
    0.1400887976991169    0.0000000000000000    -0.1688210821909357    -0.1487579080822854    0.8510535775239867
    0.1327739946504876    0.0000000000000000    -0.1631094374240843    -0.1501417081187115    0.8496549530751695
    0.1256274136827260    0.0000000000000000    -0.1574511915794868    -0.1515915361131485    0.8481889352531652
    0.1186519973760012    0.0000000000000000    -0.1518488189182660    -0.1531024016035881    0.8466602381163573
    0.1118507881483968    0.0000000000000000    -0.1463044952419009    -0.1546859203938143    0.8450580569682700
    0.1052262945783795    0.0000000000000000    -0.1408208729806730    -0.1563489748280170    0.8433743930148665
    0.0987810768458708    0.0000000000000000    -0.1354004269528206    -0.1580880733165425    0.8416136484762131
    0.0925175468126467    0.0000000000000000    -0.1300456099824133    -0.1599343016391838    0.8397434738036335
    0.0864380464675447    0.0000000000000000    -0.1247587668473525    -0.1618787311849814    0.8377727846607897
    0.0805449816071872    0.0000000000000000    -0.1195420732604542    -0.1639478908321451    0.8356753700900945
    0.0748401527676696    0.0000000000000000    -0.1143982316041644    -0.1661323863989196    0.8334596454962517
    0.0693254777240036    0.0000000000000000    -0.1093296079604400    -0.1684730389433821    0.8310853370298807
    0.0640028049797108    0.0000000000000000    -0.1043385244545646    -0.1709684233056838    0.8285515991942510
    0.0588741768800958    0.0000000000000000    -0.0994269614286211    -0.1736525312821952    0.8258262619035610
    0.0539408122808780    0.0000000000000000    -0.0945975686917650    -0.1765146449249620    0.8229181028840240
    0.0492041699666216    0.0000000000000000    -0.0898526274198526    -0.1796257455113709    0.8197552078540413
    0.0446657823048558    0.0000000000000000    -0.0851941838044796    -0.1829692043332167    0.8163539691145794
    0.0403271148354199    0.0000000000000000    -0.0806242236007744    -0.1866126646861753    0.8126449415811445
    0.0361889884805029    0.0000000000000000    -0.0761451725547145    -0.1905532654119424    0.8086327463432256
    0.0322524833218036    0.0000000000000000    -0.0717590603147699    -0.1948782023058729    0.8042232417785147
    0.0285190478622530    0.0000000000000000    -0.0674674877920366    -0.1996051776284078    0.7994022387493812
    0.0249893162889308    0.0000000000000000    -0.0632725953560103    -0.2047807751392304    0.7941180599197167
    0.0216639685942628    0.0000000000000000    -0.0591763280624507    -0.2105196744080267    0.7882548401933950
    0.0185440449520336    0.0000000000000000    -0.0551802010078479    -0.2168292306045811    0.7818011789137567
    0.0156305446499187    0.0000000000000000    -0.0512856642780243    -0.2238616713419544    0.7745982749872816
    0.0129237036470782    0.0000000000000000    -0.0474945566615868    -0.2316687025211953    0.7666006822189293
    0.0104242296360217    0.0000000000000000    -0.0438082445823220    -0.2404138931061855    0.7576211136366777
    0.0081336553182983    0.0000000000000000    -0.0402274715382799    -0.2502370703532202    0.7475284838215837
    0.0060520834804585    0.0000000000000000    -0.0367537761474405    -0.2612359070114947    0.7362092125901094
    0.0041803033529781    0.0000000000000000    -0.0333881453440737    -0.2737631578387514    0.7232999760959038
    0.0025196390553157    0.0000000000000000    -0.0301312243267449    -0.2879150635003156    0.7086896210799243
    0.0010718853307452    0.0000000000000000    -0.0269834830292486    -0.3040948120814112    0.6919675526107785
    -0.0001620133886542    0.0000000000000000    -0.0239458101370363    -0.3224765813184864    0.6729324878599665
    -0.0011799313882977    0.0000000000000000    -0.0210187095058292    -0.3435873676570863    0.6510468205285864
    -0.0019791238945434    0.0000000000000000    -0.0182027864761724    -0.3677514214360074    0.6259373837926452
    -0.0025558904030296    0.0000000000000000    -0.0154989392729959    -0.3951711798997795    0.5973882596295592
    -0.0029056773592826    0.0000000000000000    -0.0129087987286092    -0.4260209685487155    0.5652203568361466
    -0.0030240881618439    0.0000000000000000    -0.0104351648274449    -0.4599417245561851    0.5297751720459817
    -0.0029058970368019    0.0000000000000000    -0.0080820946230100    -0.4958726709260608    0.4921924243229496
    -0.0025463166575950    0.0000000000000000    -0.0058549287366456    -0.5317007323460675    0.4547605004035811
    -0.0019419160817811    0.0000000000000000    -0.0037602841579140    -0.5642909825349598    0.4209304514544399
    -0.0010924720992192    0.0000000000000000    -0.0018068666466984    -0.5906110086415873    0.3939831555308948
    -0.0000000000000144    0.0000000000000000    -0.0000000000000223    -0.6079254742311820    0.3766596846682997
    0.0013242561343030    0.0000000000000000    0.0016445688653946    -0.6141726443496662    0.3704198843654734
    0.0028693371160316    0.0000000000000000    0.0031108963901693    -0.6071722930731820    0.3780499898705274
    0.0046309451924960    0.0000000000000000    0.0043952527113361    -0.5865401887106589    0.3999213603910921
    0.0066008097761543    0.0000000000000000    0.0054948877329515    -0.5557560376126262    0.4323089053353913
    0.0087715511405713    0.0000000000000000    0.0064107433764208    -0.5188884034350815    0.4708286285065372
    0.0111365025688657    0.0000000000000000    0.0071455117342402    -0.4798023665917915    0.5114387589668157
    0.0136900743119002    0.0000000000000000    0.0077026963573867    -0.4414279523381589    0.5511315243888278
    0.0164281238913304    0.0000000000000000    0.0080854877588309    -0.4053495062268417    0.5883393077491246
    0.0193475656130539    0.0000000000000000    0.0082975927963488    -0.3727378965710541    0.6218962891689810
    0.0224462884792107    0.0000000000000000    0.0083421927350915    -0.3437560296096164    0.6516529257793346
    0.0257227858027185    0.0000000000000000    0.0082216545916210    -0.3182854158193742    0.6777769719450583
    0.0291758560084938    0.0000000000000000    0.0079378020296458    -0.2963121501033918    0.7002925191846112
    0.0328043423644333    0.0000000000000000    0.0074912221624658    -0.2771192742823883    0.7199439454532621
    0.0366071879130727    0.0000000000000000    0.0068834418386350    -0.2605866171368345    0.7368584502041331
    0.0405833316577029    0.0000000000000000    0.0061154722926897    -0.2462239603961000    0.7515415790463675
    0.0447315809848216    0.0000000000000000    0.0051877438527611    -0.2338877869023660    0.7641471417258674
    0.0490504535328018    0.0000000000000000    0.0040997891777822    -0.2230981480633017    0.7751710309060760
    0.0535387217026466    0.0000000000000000    0.0028528362087443    -0.2137144102317401    0.7847456709704477
    0.0581948679715279    0.0000000000000000    0.0014470493479698    -0.2055747726607595    0.7930555375183613
    0.0630170758077373    0.0000000000000000    -0.0001179639280864    -0.1983975551596785    0.8003771060689997
    0.0680036459881395    0.0000000000000000    -0.0018417596398867    -0.1921193294456581    0.8067794662197660
    0.0731527913952394    0.0000000000000000    -0.0037238959319650    -0.1865704824631085    0.8124368617339992
    0.0784624608644506    0.0000000000000000    -0.0057643600059528    -0.1816861303235483    0.8174152891932053
    0.0839304158186289    0.0000000000000000    -0.0079633352730565    -0.1773326203136691    0.8218532911472906
    0.0895546760139574    0.0000000000000000    -0.0103199672371761    -0.1734471579940223    0.8258103516588993
    0.0953329473940859    0.0000000000000000    -0.0128339729750223    -0.1700085956980100    0.8293144582804418
    0.1012626724823473    0.0000000000000000    -0.0155053808180464    -0.1668931867306632    0.8324877790419146
    0.1073414901383032    0.0000000000000000    -0.0183334970510061    -0.1641071675670972    0.8353255901348120
    0.1135669385130917    0.0000000000000000    -0.0213176029192393    -0.1615736013444338    0.8379051922956100
    0.1199363964362696    0.0000000000000000    -0.0244570773059557    -0.1593095161943141    0.8402106067960887
    0.1264469356611242    0.0000000000000000    -0.0277517116653319    -0.1572215889559957    0.8423368245636551
    0.1330960181189828    0.0000000000000000    -0.0312002336216506    -0.1553277464781735    0.8442643119343833
    0.1398808124064911    0.0000000000000000    -0.0348017247760419    -0.1535826822109583    0.8460405577315356
    0.1467984498999036    0.0000000000000000    -0.0385551769992784    -0.1519998578695664    0.8476516607902735
    0.1538457668238182    0.0000000000000000    -0.0424598348164195    -0.1505177596719108    0.8491600299482254
    0.1610199022562524    0.0000000000000000    -0.0465141725010103    -0.1491535963170130    0.8505481358763585
    0.1683178496826398    0.0000000000000000    -0.0507167943162720    -0.1478762999062624    0.8518470514780350
    0.1757364771602239    0.0000000000000000    -0.0550662758203100    -0.1466971490847818    0.8530468158948303
    0.1832725856242262    0.0000000000000000    -0.0595610546170571    -0.1455928619316328    0.8541696865914853
    0.1909228267578520    0.0000000000000000    -0.0641996775468443    -0.1445444584582473    0.8552359812628954
    0.1986841111347566    0.0000000000000000    -0.0689800359429328    -0.1435646896417090    0.8562318776322146
    0.2065531136985514    0.0000000000000000    -0.0739002017768700    -0.1426289677844690    0.8571825172500852
    0.2145264859140479    0.0000000000000000    -0.0789580986957258    -0.1417455155751447    0.8580804368070541
    0.2226008408101041    0.0000000000000000    -0.0841515233831400    -0.1409085593752634    0.8589304951640431
    0.2307726846039717    0.0000000000000000    -0.0894782432098612    -0.1401044428923132    0.8597470430152510
    0.2390385049217008    0.0000000000000000    -0.0949358442625703    -0.1393331079290588    0.8605300994232947
    0.2473948849537972    0.0000000000000000    -0.1005216202714642    -0.1385980225913087    0.8612760421299277
    0.2558382122699845    0.0000000000000000    -0.1062328325896015    -0.1378822104087917    0.8620022103429394
    0.2643649629547689    0.0000000000000000    -0.1120666681165741    -0.1371972958839400    0.8626965142184981
    0.2729714284753015    0.0000000000000000    -0.1180201617428004    -0.1365368076251475    0.8633661093287042
    0.2816539570821552    0.0000000000000000    -0.1240902153047824    -0.1358954063665877    0.8640159959775987
    0.2904088006036120    0.0000000000000000    -0.1302736085505192    -0.1352748493160590    0.8646444224241709
    0.2992322133244105    0.0000000000000000    -0.1365670138022936    -0.1346690669657742    0.8652577496313246
    0.3081203488335155    0.0000000000000000    -0.1429669873970449    -0.1340845784894739    0.8658491444967262
    0.3170693622678442    0.0000000000000000    -0.1494699275847140    -0.1335107170120764    0.8664295836812267
    0.3260753120222812    0.0000000000000000    -0.1560722149008800    -0.1329526768605720    0.8669937579621314
    0.3351342946839635    0.0000000000000000    -0.1627699155431409    -0.1324093580777440    0.8675427547446167
    0.3442422682717332    0.0000000000000000    -0.1695591896875941    -0.1318719860454906    0.8680854887681487
    0.3533952012190582    0.0000000000000000    -0.1764359228428830    -0.1313453234027387    0.8686170890254703
    0.3625889819915642    0.0000000000000000    -0.1833960627647962    -0.1308291461194893    0.8691378496949922
    0.3718194594160230    0.0000000000000000    -0.1904353020667091    -0.1303159525712688    0.8696553131539337
    0.3810823736652562    0.0000000000000000    -0.1975493846183910    -0.1298104590809412    0.8701646975310093
    0.3903735125597665    0.0000000000000000    -0.2047337784065895    -0.1293035783377360    0.8706751008148728
    0.3996884572958805    0.0000000000000000    -0.2119840386729492    -0.1287959027032285    0.8711859372094983
    0.4090228577652698    0.0000000000000000    -0.2192955186344425    -0.1283056556182495    0.8716788410873892
    0.4183722384314530    0.0000000000000000    -0.2266635428029301    -0.1278462879334935    0.8721403257883156
    0.4277320902096183    0.0000000000000000    -0.2340832757672590    -0.1274150042460303    0.8725733076926947
    0.4370977987259312    0.0000000000000000    -0.2415498766082340    -0.1269860072356745    0.8730038536361193
    0.4464647935695938    0.0000000000000000    -0.2490583896622171    -0.1266010898064932    0.8733898801378339
    0.4558282800228808    0.0000000000000000    -0.2566038158976787    -0.1262242445535635    0.8737673570412138
    0.4651835912526945    0.0000000000000000    -0.2641810775624822    -0.1258703053717477    0.8741215893286061
    0.4745257692913372    0.0000000000000000    -0.2717849931001313    -0.1255044527533363    0.8744873758697266
    0.4838500389714584    0.0000000000000000    -0.2794104316407464    -0.1251581901907515    0.8748331890744437
    0.4931513257639182    0.0000000000000000    -0.2870520663422640    -0.1247810198918565    0.8752095509461526
    0.5024245697769940    0.0000000000000000    -0.2947046533757096    -0.1244069386321609    0.8755823337958797
    0.5116648371865793    0.0000000000000000    -0.3023627688689335    -0.1240419040396011    0.8759455091918578
    0.5208668474787457    0.0000000000000000    -0.3100209644864929    -0.1236821077289861    0.8763031781743718
    0.5300255731325993    0.0000000000000000    -0.3176738462515824    -0.1233373154808536    0.8766451699158453
    0.5391356402571663    0.0000000000000000    -0.3253158913499607    -0.1229928434644776    0.8769862115175708
    0.5481917088295747    0.0000000000000000    -0.3329416325162557    -0.1226554434535978    0.8773197086039746
    0.5571885117957880    0.0000000000000000    -0.3405453943572677    -0.1223256969106866    0.8776451188391102
    0.5661207009057074    0.0000000000000000    -0.3481216174398027    -0.1220016355949283    0.8779640437739991
    0.5749828131647634    0.0000000000000000    -0.3556646983676612    -0.1216835547750971    0.8782763773222140
    0.5837693089755644    0.0000000000000000    -0.3631690392273541    -0.1213732788933821    0.8785802053483870
    0.5924748535478708    0.0000000000000000    -0.3706288535279311    -0.1210613279582188    0.8788848867708724
    0.6010938435018263    0.0000000000000000    -0.3780385305291369    -0.1207574480924600    0.8791806789213200
    0.6096207926584851    0.0000000000000000    -0.3853923960280031    -0.1204651108892986    0.8794641187134093
    0.6180501278720518    0.0000000000000000    -0.3926846921880247    -0.1201695927645174    0.8797499844191411
    0.6263763928779253    0.0000000000000000    -0.3999097020841230    -0.1198795636890819    0.8800293072201943
    0.6345939939115679    0.0000000000000000    -0.4070618012439374    -0.1196002068273141    0.8802969485009463
    0.6426974493872324    0.0000000000000000    -0.4141352049871994    -0.1193257876269237    0.8805587138221213
    0.6506812891515095    0.0000000000000000    -0.4211242162240977    -0.1190606208831567    0.8808096930406710
    0.6585398588625289    0.0000000000000000    -0.4280231930781339    -0.1187991222601897    0.8810558244880420
    0.6662679374061593    0.0000000000000000    -0.4348263945471565    -0.1185462479834283    0.8812918653215456
    0.6738599449066474    0.0000000000000000    -0.4415281763235369    -0.1182940788976043    0.8815259716485806
    0.6813105801221608    0.0000000000000000    -0.4481229118393415    -0.1180621435522040    0.8817388562947347
    0.6886145959779375    0.0000000000000000    -0.4546050010855063    -0.1178351004435327    0.8819442200154819
    0.6957666217881320    0.0000000000000000    -0.4609689166704207    -0.1176248797196804    0.8821316992694689
    0.7027616434917192    0.0000000000000000    -0.4672090375595251    -0.1174263629146858    0.8823048762203429
    0.7095944611314042    0.0000000000000000    -0.4733200082056451    -0.1172535601557513    0.8824504017256789
    0.7162600859673098    0.0000000000000000    -0.4792962753294122    -0.1170971084658423    0.8825774054089234
    0.7227536219971649    0.0000000000000000    -0.4851325688785347    -0.1169727072749385    0.8826696096833484
    0.7290702565514913    0.0000000000000000    -0.4908234997891370    -0.1168700120554913    0.8827374110351272
    0.7352052771770374    0.0000000000000000    -0.4963639515438901    -0.1168101040189854    0.8827585951838826
    0.7411540825309393    0.0000000000000000    -0.5017486489433541    -0.1167761493907132    0.8827507322718894
    0.7469122483038655    0.0000000000000000    -0.5069726874631707    -0.1168104384233564    0.8826704129618915
    0.7524754709122190    0.0000000000000000    -0.5120309901647659    -0.1168995866032330    0.8825308135863748
    0.7578394602362222    0.0000000000000000    -0.5169187726338242    -0.1170489088722592    0.8823235742412332
    0.7630001962430164    0.0000000000000000    -0.5216312804020359    -0.1172799612372180    0.8820291478246829
    0.7679538178762479    0.0000000000000000    -0.5261639476292208    -0.1176128201983780    0.8816230701325423
    0.7726964843785966    0.0000000000000000    -0.5305121794851936    -0.1180254642873605    0.8811242885448427
    0.7772245910010120    0.0000000000000000    -0.5346717715076782    -0.1185602784645383    0.8804912012849353
    0.7815348148860854    0.0000000000000000    -0.5386384284040256    -0.1192122383532234    0.8797162749552753
    0.7856237785316695    0.0000000000000000    -0.5424082446749364    -0.1200211715235737    0.8787571554872620
    0.7894883521394114    0.0000000000000000    -0.5459772728160063    -0.1209506844109276    0.8776379964799232
    0.7931257124316282    0.0000000000000000    -0.5493418549886269    -0.1220387145585167    0.8763059675385804
    0.7965330445723486    0.0000000000000000    -0.5524985291332590    -0.1234160490069078    0.8746208545120084
    0.7997077731777953    0.0000000000000000    -0.5554440108047908    -0.1251912539981994    0.8724493084826179
    0.8026475488282570    0.0000000000000000    -0.5581752124356305    -0.1268364221568870    0.8702198532480349
    0.8053502667119083    0.0000000000000000    -0.5606893206270892    -0.1285110473785441    0.8676752629513874
    0.8078143018844663    0.0000000000000000    -0.5629840836689243    -0.1306214529192252    0.8643867513528070
    0.8100400926868776    0.0000000000000000    -0.5650591872979543    -0.1331470958497170    0.8602320388441145
    0.8120366719246759    0.0000000000000000    -0.5669224109188310    -0.1361149206981215    0.8549464568469798
    0.8138379993356342    0.0000000000000000    -0.5686048558253756    -0.1391683298586317    0.8479907982898844
    0.8155155244444980    0.0000000000000000    -0.5701729318324055    -0.1438112188381285    0.8354713474351224
    0.8171169536231737    0.0000000000000000    -0.5716710498616497    -0.1640384329807870    0.7970313840370632
    0.8184685156393146    0.0000000000000000    -0.5729362832156457    -0.1809053828665044    0.6744105434134224
    0.8191520442889937    0.0000000000000000    -0.5735764363510460    0.5859600972881802    -1.1101290977366949
    0.8193429414371165    0.0000000000000000    -0.5735422814962985    0.5859600972881802    -1.1101290977366949
    0.8182651848067337    0.0000000000000000    -0.5736135385276045    -0.2971926459348899    0.5583808326247288
    0.8165049545322969    0.0000000000000000    -0.5731544070620859    -0.2550895455932114    0.7059313989439362
    0.8144424934811774    0.0000000000000000    -0.5724681854554950    -0.2118202276814064    0.7674748248323332
    0.8122944533910914    0.0000000000000000    -0.5716725638242646    -0.1800154294253383    0.8071590278689182
    0.8100071632502832    0.0000000000000000    -0.5707711050642162    -0.1603158477511875    0.8307456268880300
    0.8074906160012087    0.0000000000000000    -0.5697374586667658    -0.1479996818744871    0.8453793445297400